; DIO_GMX.top created by acpype (Rev: 0) on Wed Jun 15 16:18:34 2022 modified topology using DIHEDRAL scan and fitting curve A,B,C,D NOT dividing the kd by 4

[ defaults ]
; nbfunc        comb-rule       gen-pairs       fudgeLJ fudgeQQ
1               2               yes             0.5     0.8333

[ atomtypes ]
;name   bond_type     mass     charge   ptype   sigma         epsilon       Amb
 f        f           0.00000  0.00000   A     3.11815e-01   2.55224e-01 ; 1.75  0.0610
 ca       ca          0.00000  0.00000   A     3.39967e-01   3.59824e-01 ; 1.91  0.0860
 cp       cp          0.00000  0.00000   A     3.39967e-01   3.59824e-01 ; 1.91  0.0860
 os       os          0.00000  0.00000   A     3.00001e-01   7.11280e-01 ; 1.68  0.1700
 c        c           0.00000  0.00000   A     3.39967e-01   3.59824e-01 ; 1.91  0.0860
 o        o           0.00000  0.00000   A     2.95992e-01   8.78640e-01 ; 1.66  0.2100
 c3       c3          0.00000  0.00000   A     3.39967e-01   4.57730e-01 ; 1.91  0.1094
 ha       ha          0.00000  0.00000   A     2.59964e-01   6.27600e-02 ; 1.46  0.0150
 h2       h2          0.00000  0.00000   A     2.29317e-01   6.56888e-02 ; 1.29  0.0157
 h1       h1          0.00000  0.00000   A     2.47135e-01   6.56888e-02 ; 1.39  0.0157
 hc       hc          0.00000  0.00000   A     2.64953e-01   6.56888e-02 ; 1.49  0.0157

[ moleculetype ]
;name            nrexcl
 DIO              3

[ atoms ]
;   nr  type  resi  res  atom  cgnr     charge      mass       ; qtot   bond_type
   1    f    1  DIO   F1    1  -0.143000   19.00000 ; 0.00000 -0.143   ; qtot   0.000
   2   ca    1  DIO   C1    2   0.236000   12.01000 ; 0.00000 0.093   ; qtot   0.000
   3   ca    1  DIO   C2    3  -0.322000   12.01000 ; 0.00000 -0.229   ; qtot   0.000
   4   cp    1  DIO   C3    4   0.097000   12.01000 ; 0.00000 -0.132   ; qtot   0.000
   5   ca    1  DIO   C4    5  -0.322000   12.01000 ; 0.00000 -0.454   ; qtot   0.000
   6   ca    1  DIO   C5    6   0.237000   12.01000 ; 0.00000 -0.217   ; qtot   0.000
   7    f    1  DIO   F2    7  -0.143000   19.00000 ; 0.00000 -0.360   ; qtot   0.000
   8   ca    1  DIO   C6    8   0.090000   12.01000 ; 0.00000 -0.270   ; qtot   0.000
   9    f    1  DIO   F3    9  -0.121000   19.00000 ; 0.00000 -0.391   ; qtot   0.000
  10   cp    1  DIO   C7   10   0.007000   12.01000 ; 0.00000 -0.384   ; qtot   0.000
  11   ca    1  DIO   C8   11  -0.165000   12.01000 ; 0.00000 -0.549   ; qtot   0.000
  12   ca    1  DIO   C9   12  -0.254000   12.01000 ; 0.00000 -0.803   ; qtot   0.000
  13   ca    1  DIO  C10   13   0.329000   12.01000 ; 0.00000 -0.474   ; qtot   0.000
  14   ca    1  DIO  C11   14  -0.331000   12.01000 ; 0.00000 -0.805   ; qtot   0.000
  15   ca    1  DIO  C12   15   0.263000   12.01000 ; 0.00000 -0.542   ; qtot   0.000
  16    f    1  DIO   F4   16  -0.155000   19.00000 ; 0.00000 -0.697   ; qtot   0.000
  17   os    1  DIO   O1   17  -0.374000   16.00000 ; 0.00000 -1.071   ; qtot   0.000
  18    c    1  DIO  C13   18   0.778000   12.01000 ; 0.00000 -0.293   ; qtot   0.000
  19    o    1  DIO   O2   19  -0.484000   16.00000 ; 0.00000 -0.777   ; qtot   0.000
  20   ca    1  DIO  C14   20  -0.364000   12.01000 ; 0.00000 -1.141   ; qtot   0.000
  21   ca    1  DIO  C15   21   0.322000   12.01000 ; 0.00000 -0.819   ; qtot   0.000
  22    f    1  DIO   F5   22  -0.153000   19.00000 ; 0.00000 -0.972   ; qtot   0.000
  23   ca    1  DIO  C16   23  -0.253000   12.01000 ; 0.00000 -1.225   ; qtot   0.000
  24   ca    1  DIO  C17   24   0.060000   12.01000 ; 0.00000 -1.165   ; qtot   0.000
  25   ca    1  DIO  C18   25  -0.252000   12.01000 ; 0.00000 -1.417   ; qtot   0.000
  26   ca    1  DIO  C19   26   0.322000   12.01000 ; 0.00000 -1.095   ; qtot   0.000
  27    f    1  DIO   F6   27  -0.153000   19.00000 ; 0.00000 -1.248   ; qtot   0.000
  28   c3    1  DIO  C20   28   0.232000   12.01000 ; 0.00000 -1.016   ; qtot   0.000
  29   os    1  DIO   O3   29  -0.348000   16.00000 ; 0.00000 -1.364   ; qtot   0.000
  30   c3    1  DIO  C21   30   0.047000   12.01000 ; 0.00000 -1.317   ; qtot   0.000
  31   c3    1  DIO  C22   31  -0.065000   12.01000 ; 0.00000 -1.382   ; qtot   0.000
  32   c3    1  DIO  C23   32   0.047000   12.01000 ; 0.00000 -1.335   ; qtot   0.000
  33   os    1  DIO   O4   33  -0.349000   16.00000 ; 0.00000 -1.684   ; qtot   0.000
  34   c3    1  DIO  C24   34  -0.088000   12.01000 ; 0.00000 -1.772   ; qtot   0.000
  35   c3    1  DIO  C25   35   0.026000   12.01000 ; 0.00000 -1.746   ; qtot   0.000
  36   c3    1  DIO  C26   36  -0.221000   12.01000 ; 0.00000 -1.967   ; qtot   0.000
  37   ha    1  DIO   H1   37   0.184000    1.00800 ; 0.00000 -1.783   ; qtot   0.000
  38   ha    1  DIO   H2   38   0.183000    1.00800 ; 0.00000 -1.600   ; qtot   0.000
  39   ha    1  DIO   H3   39   0.143000    1.00800 ; 0.00000 -1.457   ; qtot   0.000
  40   ha    1  DIO   H4   40   0.185000    1.00800 ; 0.00000 -1.272   ; qtot   0.000
  41   ha    1  DIO   H5   41   0.188000    1.00800 ; 0.00000 -1.084   ; qtot   0.000
  42   ha    1  DIO   H6   42   0.156000    1.00800 ; 0.00000 -0.928   ; qtot   0.000
  43   ha    1  DIO   H7   43   0.157000    1.00800 ; 0.00000 -0.771   ; qtot   0.000
  44   h2    1  DIO   H8   44   0.118000    1.00800 ; 0.00000 -0.653   ; qtot   0.000
  45   h1    1  DIO   H9   45   0.062000    1.00800 ; 0.00000 -0.591   ; qtot   0.000
  46   h1    1  DIO  H10   46   0.062000    1.00800 ; 0.00000 -0.529   ; qtot   0.000
  47   hc    1  DIO  H11   47   0.044000    1.00800 ; 0.00000 -0.485   ; qtot   0.000
  48   h1    1  DIO  H12   48   0.062000    1.00800 ; 0.00000 -0.423   ; qtot   0.000
  49   h1    1  DIO  H13   49   0.062000    1.00800 ; 0.00000 -0.361   ; qtot   0.000
  50   hc    1  DIO  H14   50   0.069000    1.00800 ; 0.00000 -0.292   ; qtot   0.000
  51   hc    1  DIO  H15   51   0.069000    1.00800 ; 0.00000 -0.223   ; qtot   0.000
  52   hc    1  DIO  H16   52   0.027000    1.00800 ; 0.00000 -0.196   ; qtot   0.000
  53   hc    1  DIO  H17   53   0.027000    1.00800 ; 0.00000 -0.169   ; qtot   0.000
  54   hc    1  DIO  H18   54   0.056000    1.00800 ; 0.00000 -0.113   ; qtot   0.000
  55   hc    1  DIO  H19   55   0.057000    1.00800 ; 0.00000 -0.056   ; qtot   0.000
  56   hc    1  DIO  H20   56   0.056000    1.00800 ; 0.00000 -0.000   ; qtot   0.000

[ bonds ]
;   ai     aj funct   r             k
     1      2   1    1.3490e-01    2.9941e+05 ;     F1 - C1    
     2      3   1    1.3984e-01    3.8585e+05 ;     C1 - C2    
     2      8   1    1.3984e-01    3.8585e+05 ;     C1 - C6    
     3      4   1    1.4058e-01    3.7673e+05 ;     C2 - C3    
     3     37   1    1.0860e-01    2.8937e+05 ;     C2 - H1    
     4      5   1    1.4058e-01    3.7673e+05 ;     C3 - C4    
     4     10   1    1.4854e-01    2.9405e+05 ;     C3 - C7    
     5      6   1    1.3984e-01    3.8585e+05 ;     C4 - C5    
     5     38   1    1.0860e-01    2.8937e+05 ;     C4 - H2    
     6      7   1    1.3490e-01    2.9941e+05 ;     C5 - F2    
     6      8   1    1.3984e-01    3.8585e+05 ;     C5 - C6    
     8      9   1    1.3490e-01    2.9941e+05 ;     C6 - F3    
    10     11   1    1.4058e-01    3.7673e+05 ;     C7 - C8    
    10     15   1    1.4058e-01    3.7673e+05 ;     C7 - C12   
    11     12   1    1.3984e-01    3.8585e+05 ;     C8 - C9    
    11     39   1    1.0860e-01    2.8937e+05 ;     C8 - H3    
    12     13   1    1.3984e-01    3.8585e+05 ;     C9 - C10   
    12     40   1    1.0860e-01    2.8937e+05 ;     C9 - H4    
    13     14   1    1.3984e-01    3.8585e+05 ;    C10 - C11   
    13     17   1    1.3696e-01    3.1514e+05 ;    C10 - O1    
    14     15   1    1.3984e-01    3.8585e+05 ;    C11 - C12   
    14     41   1    1.0860e-01    2.8937e+05 ;    C11 - H5    
    15     16   1    1.3490e-01    2.9941e+05 ;    C12 - F4    
    17     18   1    1.3584e-01    3.2702e+05 ;     O1 - C13   
    18     19   1    1.2183e-01    5.3363e+05 ;    C13 - O2    
    18     20   1    1.4906e-01    2.8945e+05 ;    C13 - C14   
    20     21   1    1.3984e-01    3.8585e+05 ;    C14 - C15   
    20     26   1    1.3984e-01    3.8585e+05 ;    C14 - C19   
    21     22   1    1.3490e-01    2.9941e+05 ;    C15 - F5    
    21     23   1    1.3984e-01    3.8585e+05 ;    C15 - C16   
    23     24   1    1.3984e-01    3.8585e+05 ;    C16 - C17   
    23     42   1    1.0860e-01    2.8937e+05 ;    C16 - H6    
    24     25   1    1.3984e-01    3.8585e+05 ;    C17 - C18   
    24     28   1    1.5156e-01    2.6861e+05 ;    C17 - C20   
    25     26   1    1.3984e-01    3.8585e+05 ;    C18 - C19   
    25     43   1    1.0860e-01    2.8937e+05 ;    C18 - H7    
    26     27   1    1.3490e-01    2.9941e+05 ;    C19 - F6    
    28     29   1    1.4316e-01    2.5824e+05 ;    C20 - O3    
    28     33   1    1.4316e-01    2.5824e+05 ;    C20 - O4    
    28     44   1    1.0961e-01    2.7757e+05 ;    C20 - H8    
    29     30   1    1.4316e-01    2.5824e+05 ;     O3 - C21   
    30     31   1    1.5375e-01    2.5179e+05 ;    C21 - C22   
    30     45   1    1.0969e-01    2.7665e+05 ;    C21 - H9    
    30     46   1    1.0969e-01    2.7665e+05 ;    C21 - H10   
    31     32   1    1.5375e-01    2.5179e+05 ;    C22 - C23   
    31     34   1    1.5375e-01    2.5179e+05 ;    C22 - C24   
    31     47   1    1.0969e-01    2.7665e+05 ;    C22 - H11   
    32     33   1    1.4316e-01    2.5824e+05 ;    C23 - O4    
    32     48   1    1.0969e-01    2.7665e+05 ;    C23 - H12   
    32     49   1    1.0969e-01    2.7665e+05 ;    C23 - H13   
    34     35   1    1.5375e-01    2.5179e+05 ;    C24 - C25   
    34     50   1    1.0969e-01    2.7665e+05 ;    C24 - H14   
    34     51   1    1.0969e-01    2.7665e+05 ;    C24 - H15   
    35     36   1    1.5375e-01    2.5179e+05 ;    C25 - C26   
    35     52   1    1.0969e-01    2.7665e+05 ;    C25 - H16   
    35     53   1    1.0969e-01    2.7665e+05 ;    C25 - H17   
    36     54   1    1.0969e-01    2.7665e+05 ;    C26 - H18   
    36     55   1    1.0969e-01    2.7665e+05 ;    C26 - H19   
    36     56   1    1.0969e-01    2.7665e+05 ;    C26 - H20   

[ pairs ]
;   ai     aj    funct
     1      4      1 ;     F1 - C3    
     1      6      1 ;     F1 - C5    
     1      9      1 ;     F1 - F3    
     1     37      1 ;     F1 - H1    
     2      5      1 ;     C1 - C4    
     2      7      1 ;     C1 - F2    
     2     10      1 ;     C1 - C7    
     3      6      1 ;     C2 - C5    
     3      9      1 ;     C2 - F3    
     3     11      1 ;     C2 - C8    
     3     15      1 ;     C2 - C12   
     3     38      1 ;     C2 - H2    
     4      7      1 ;     C3 - F2    
     4      8      1 ;     C3 - C6    
     4     12      1 ;     C3 - C9    
     4     14      1 ;     C3 - C11   
     4     16      1 ;     C3 - F4    
     4     39      1 ;     C3 - H3    
     5      9      1 ;     C4 - F3    
     5     11      1 ;     C4 - C8    
     5     15      1 ;     C4 - C12   
     5     37      1 ;     C4 - H1    
     6     10      1 ;     C5 - C7    
     7      9      1 ;     F2 - F3    
     7     38      1 ;     F2 - H2    
     8     37      1 ;     C6 - H1    
     8     38      1 ;     C6 - H2    
    10     13      1 ;     C7 - C10   
    10     37      1 ;     C7 - H1    
    10     38      1 ;     C7 - H2    
    10     40      1 ;     C7 - H4    
    10     41      1 ;     C7 - H5    
    11     14      1 ;     C8 - C11   
    11     16      1 ;     C8 - F4    
    11     17      1 ;     C8 - O1    
    12     15      1 ;     C9 - C12   
    12     18      1 ;     C9 - C13   
    12     41      1 ;     C9 - H5    
    13     16      1 ;    C10 - F4    
    13     19      1 ;    C10 - O2    
    13     20      1 ;    C10 - C14   
    13     39      1 ;    C10 - H3    
    14     18      1 ;    C11 - C13   
    14     40      1 ;    C11 - H4    
    15     17      1 ;    C12 - O1    
    15     39      1 ;    C12 - H3    
    16     41      1 ;     F4 - H5    
    17     21      1 ;     O1 - C15   
    17     26      1 ;     O1 - C19   
    17     40      1 ;     O1 - H4    
    17     41      1 ;     O1 - H5    
    18     22      1 ;    C13 - F5    
    18     23      1 ;    C13 - C16   
    18     25      1 ;    C13 - C18   
    18     27      1 ;    C13 - F6    
    19     21      1 ;     O2 - C15   
    19     26      1 ;     O2 - C19   
    20     24      1 ;    C14 - C17   
    20     42      1 ;    C14 - H6    
    20     43      1 ;    C14 - H7    
    21     25      1 ;    C15 - C18   
    21     27      1 ;    C15 - F6    
    21     28      1 ;    C15 - C20   
    22     24      1 ;     F5 - C17   
    22     26      1 ;     F5 - C19   
    22     42      1 ;     F5 - H6    
    23     26      1 ;    C16 - C19   
    23     29      1 ;    C16 - O3    
    23     33      1 ;    C16 - O4    
    23     43      1 ;    C16 - H7    
    23     44      1 ;    C16 - H8    
    24     27      1 ;    C17 - F6    
    24     30      1 ;    C17 - C21   
    24     32      1 ;    C17 - C23   
    25     29      1 ;    C18 - O3    
    25     33      1 ;    C18 - O4    
    25     42      1 ;    C18 - H6    
    25     44      1 ;    C18 - H8    
    26     28      1 ;    C19 - C20   
    27     43      1 ;     F6 - H7    
    28     31      1 ;    C20 - C22   
    28     42      1 ;    C20 - H6    
    28     43      1 ;    C20 - H7    
    28     45      1 ;    C20 - H9    
    28     46      1 ;    C20 - H10   
    28     48      1 ;    C20 - H12   
    28     49      1 ;    C20 - H13   
    29     32      1 ;     O3 - C23   
    29     34      1 ;     O3 - C24   
    29     47      1 ;     O3 - H11   
    30     33      1 ;    C21 - O4    
    30     35      1 ;    C21 - C25   
    30     44      1 ;    C21 - H8    
    30     48      1 ;    C21 - H12   
    30     49      1 ;    C21 - H13   
    30     50      1 ;    C21 - H14   
    30     51      1 ;    C21 - H15   
    31     36      1 ;    C22 - C26   
    31     52      1 ;    C22 - H16   
    31     53      1 ;    C22 - H17   
    32     35      1 ;    C23 - C25   
    32     44      1 ;    C23 - H8    
    32     45      1 ;    C23 - H9    
    32     46      1 ;    C23 - H10   
    32     50      1 ;    C23 - H14   
    32     51      1 ;    C23 - H15   
    33     34      1 ;     O4 - C24   
    33     47      1 ;     O4 - H11   
    34     45      1 ;    C24 - H9    
    34     46      1 ;    C24 - H10   
    34     48      1 ;    C24 - H12   
    34     49      1 ;    C24 - H13   
    34     54      1 ;    C24 - H18   
    34     55      1 ;    C24 - H19   
    34     56      1 ;    C24 - H20   
    35     47      1 ;    C25 - H11   
    36     50      1 ;    C26 - H14   
    36     51      1 ;    C26 - H15   
    39     40      1 ;     H3 - H4    
    45     47      1 ;     H9 - H11   
    46     47      1 ;    H10 - H11   
    47     48      1 ;    H11 - H12   
    47     49      1 ;    H11 - H13   
    47     50      1 ;    H11 - H14   
    47     51      1 ;    H11 - H15   
    50     52      1 ;    H14 - H16   
    50     53      1 ;    H14 - H17   
    51     52      1 ;    H15 - H16   
    51     53      1 ;    H15 - H17   
    52     54      1 ;    H16 - H18   
    52     55      1 ;    H16 - H19   
    52     56      1 ;    H16 - H20   
    53     54      1 ;    H17 - H18   
    53     55      1 ;    H17 - H19   
    53     56      1 ;    H17 - H20   

[ angles ]
;   ai     aj     ak    funct   theta         cth
     1      2      3      1    1.1896e+02    5.6149e+02 ;     F1 - C1     - C2    
     1      2      8      1    1.1896e+02    5.6149e+02 ;     F1 - C1     - C6    
     2      3      4      1    1.2069e+02    5.5480e+02 ;     C1 - C2     - C3    
     2      3     37      1    1.1988e+02    4.0334e+02 ;     C1 - C2     - H1    
     2      8      6      1    1.2002e+02    5.5731e+02 ;     C1 - C6     - C5    
     2      8      9      1    1.1896e+02    5.6149e+02 ;     C1 - C6     - F3    
     3      2      8      1    1.2002e+02    5.5731e+02 ;     C2 - C1     - C6    
     3      4      5      1    1.1838e+02    5.5815e+02 ;     C2 - C3     - C4    
     3      4     10      1    1.2111e+02    5.3555e+02 ;     C2 - C3     - C7    
     4      3     37      1    1.1986e+02    4.0166e+02 ;     C3 - C2     - H1    
     4      5      6      1    1.2069e+02    5.5480e+02 ;     C3 - C4     - C5    
     4      5     38      1    1.1986e+02    4.0166e+02 ;     C3 - C4     - H2    
     4     10     11      1    1.2111e+02    5.3555e+02 ;     C3 - C7     - C8    
     4     10     15      1    1.2111e+02    5.3555e+02 ;     C3 - C7     - C12   
     5      4     10      1    1.2111e+02    5.3555e+02 ;     C4 - C3     - C7    
     5      6      7      1    1.1896e+02    5.6149e+02 ;     C4 - C5     - F2    
     5      6      8      1    1.2002e+02    5.5731e+02 ;     C4 - C5     - C6    
     6      5     38      1    1.1988e+02    4.0334e+02 ;     C5 - C4     - H2    
     6      8      9      1    1.1896e+02    5.6149e+02 ;     C5 - C6     - F3    
     7      6      8      1    1.1896e+02    5.6149e+02 ;     F2 - C5     - C6    
    10     11     12      1    1.2069e+02    5.5480e+02 ;     C7 - C8     - C9    
    10     11     39      1    1.1986e+02    4.0166e+02 ;     C7 - C8     - H3    
    10     15     14      1    1.2069e+02    5.5480e+02 ;     C7 - C12    - C11   
    10     15     16      1    1.1942e+02    5.5898e+02 ;     C7 - C12    - F4    
    11     10     15      1    1.1838e+02    5.5815e+02 ;     C8 - C7     - C12   
    11     12     13      1    1.2002e+02    5.5731e+02 ;     C8 - C9     - C10   
    11     12     40      1    1.1988e+02    4.0334e+02 ;     C8 - C9     - H4    
    12     11     39      1    1.1988e+02    4.0334e+02 ;     C9 - C8     - H3    
    12     13     14      1    1.2002e+02    5.5731e+02 ;     C9 - C10    - C11   
    12     13     17      1    1.1920e+02    5.8241e+02 ;     C9 - C10    - O1    
    13     12     40      1    1.1988e+02    4.0334e+02 ;    C10 - C9     - H4    
    13     14     15      1    1.2002e+02    5.5731e+02 ;    C10 - C11    - C12   
    13     14     41      1    1.1988e+02    4.0334e+02 ;    C10 - C11    - H5    
    13     17     18      1    1.2115e+02    5.3053e+02 ;    C10 - O1     - C13   
    14     13     17      1    1.1920e+02    5.8241e+02 ;    C11 - C10    - O1    
    14     15     16      1    1.1896e+02    5.6149e+02 ;    C11 - C12    - F4    
    15     14     41      1    1.1988e+02    4.0334e+02 ;    C12 - C11    - H5    
    17     18     19      1    1.2325e+02    6.3011e+02 ;     O1 - C13    - O2    
    17     18     20      1    1.1244e+02    5.7990e+02 ;     O1 - C13    - C14   
    18     20     21      1    1.2033e+02    5.3806e+02 ;    C13 - C14    - C15   
    18     20     26      1    1.2033e+02    5.3806e+02 ;    C13 - C14    - C19   
    19     18     20      1    1.2260e+02    5.7488e+02 ;     O2 - C13    - C14   
    20     21     22      1    1.1896e+02    5.6149e+02 ;    C14 - C15    - F5    
    20     21     23      1    1.2002e+02    5.5731e+02 ;    C14 - C15    - C16   
    20     26     25      1    1.2002e+02    5.5731e+02 ;    C14 - C19    - C18   
    20     26     27      1    1.1896e+02    5.6149e+02 ;    C14 - C19    - F6    
    21     20     26      1    1.2002e+02    5.5731e+02 ;    C15 - C14    - C19   
    21     23     24      1    1.2002e+02    5.5731e+02 ;    C15 - C16    - C17   
    21     23     42      1    1.1988e+02    4.0334e+02 ;    C15 - C16    - H6    
    22     21     23      1    1.1896e+02    5.6149e+02 ;     F5 - C15    - C16   
    23     24     25      1    1.2002e+02    5.5731e+02 ;    C16 - C17    - C18   
    23     24     28      1    1.2077e+02    5.3137e+02 ;    C16 - C17    - C20   
    24     23     42      1    1.1988e+02    4.0334e+02 ;    C17 - C16    - H6    
    24     25     26      1    1.2002e+02    5.5731e+02 ;    C17 - C18    - C19   
    24     25     43      1    1.1988e+02    4.0334e+02 ;    C17 - C18    - H7    
    24     28     29      1    1.0895e+02    5.7153e+02 ;    C17 - C20    - O3    
    24     28     33      1    1.0895e+02    5.7153e+02 ;    C17 - C20    - O4    
    24     28     44      1    1.0970e+02    3.9330e+02 ;    C17 - C20    - H8    
    25     24     28      1    1.2077e+02    5.3137e+02 ;    C18 - C17    - C20   
    25     26     27      1    1.1896e+02    5.6149e+02 ;    C18 - C19    - F6    
    26     25     43      1    1.1988e+02    4.0334e+02 ;    C19 - C18    - H7    
    28     29     30      1    1.1248e+02    5.2467e+02 ;    C20 - O3     - C21   
    28     33     32      1    1.1248e+02    5.2467e+02 ;    C20 - O4     - C23   
    29     28     33      1    1.0829e+02    6.0835e+02 ;     O3 - C20    - O4    
    29     28     44      1    1.0958e+02    4.2593e+02 ;     O3 - C20    - H8    
    29     30     31      1    1.0797e+02    5.6902e+02 ;     O3 - C21    - C22   
    29     30     45      1    1.0978e+02    4.2509e+02 ;     O3 - C21    - H9    
    29     30     46      1    1.0978e+02    4.2509e+02 ;     O3 - C21    - H10   
    30     31     32      1    1.1151e+02    5.2635e+02 ;    C21 - C22    - C23   
    30     31     34      1    1.1151e+02    5.2635e+02 ;    C21 - C22    - C24   
    30     31     47      1    1.0980e+02    3.8744e+02 ;    C21 - C22    - H11   
    31     30     45      1    1.0956e+02    3.8828e+02 ;    C22 - C21    - H9    
    31     30     46      1    1.0956e+02    3.8828e+02 ;    C22 - C21    - H10   
    31     32     33      1    1.0797e+02    5.6902e+02 ;    C22 - C23    - O4    
    31     32     48      1    1.0956e+02    3.8828e+02 ;    C22 - C23    - H12   
    31     32     49      1    1.0956e+02    3.8828e+02 ;    C22 - C23    - H13   
    31     34     35      1    1.1151e+02    5.2635e+02 ;    C22 - C24    - C25   
    31     34     50      1    1.0980e+02    3.8744e+02 ;    C22 - C24    - H14   
    31     34     51      1    1.0980e+02    3.8744e+02 ;    C22 - C24    - H15   
    32     31     34      1    1.1151e+02    5.2635e+02 ;    C23 - C22    - C24   
    32     31     47      1    1.0980e+02    3.8744e+02 ;    C23 - C22    - H11   
    33     28     44      1    1.0958e+02    4.2593e+02 ;     O4 - C20    - H8    
    33     32     48      1    1.0978e+02    4.2509e+02 ;     O4 - C23    - H12   
    33     32     49      1    1.0978e+02    4.2509e+02 ;     O4 - C23    - H13   
    34     31     47      1    1.0980e+02    3.8744e+02 ;    C24 - C22    - H11   
    34     35     36      1    1.1151e+02    5.2635e+02 ;    C24 - C25    - C26   
    34     35     52      1    1.0980e+02    3.8744e+02 ;    C24 - C25    - H16   
    34     35     53      1    1.0980e+02    3.8744e+02 ;    C24 - C25    - H17   
    35     34     50      1    1.0980e+02    3.8744e+02 ;    C25 - C24    - H14   
    35     34     51      1    1.0980e+02    3.8744e+02 ;    C25 - C24    - H15   
    35     36     54      1    1.0980e+02    3.8744e+02 ;    C25 - C26    - H18   
    35     36     55      1    1.0980e+02    3.8744e+02 ;    C25 - C26    - H19   
    35     36     56      1    1.0980e+02    3.8744e+02 ;    C25 - C26    - H20   
    36     35     52      1    1.0980e+02    3.8744e+02 ;    C26 - C25    - H16   
    36     35     53      1    1.0980e+02    3.8744e+02 ;    C26 - C25    - H17   
    45     30     46      1    1.0846e+02    3.2803e+02 ;     H9 - C21    - H10   
    48     32     49      1    1.0846e+02    3.2803e+02 ;    H12 - C23    - H13   
    50     34     51      1    1.0758e+02    3.2970e+02 ;    H14 - C24    - H15   
    52     35     53      1    1.0758e+02    3.2970e+02 ;    H16 - C25    - H17   
    54     36     55      1    1.0758e+02    3.2970e+02 ;    H18 - C26    - H19   
    54     36     56      1    1.0758e+02    3.2970e+02 ;    H18 - C26    - H20   
    55     36     56      1    1.0758e+02    3.2970e+02 ;    H19 - C26    - H20   

[ dihedrals ] ; propers
; for gromacs 4.5 or higher, using funct 9
;    i      j      k      l   func   phase     kd      pn
     1      2      3      4      9   180.00  15.16700   2 ;     F1-    C1-    C2-    C3
     1      2      3     37      9   180.00  15.16700   2 ;     F1-    C1-    C2-    H1
     1      2      8      6      9   180.00  15.16700   2 ;     F1-    C1-    C6-    C5
     1      2      8      9      9   180.00  15.16700   2 ;     F1-    C1-    C6-    F3
     2      3      4      5      9   180.00  15.16700   2 ;     C1-    C2-    C3-    C4
     2      3      4     10      9   180.00  15.16700   2 ;     C1-    C2-    C3-    C7
     2      8      6      5      9   180.00  15.16700   2 ;     C1-    C6-    C5-    C4
     2      8      6      7      9   180.00  15.16700   2 ;     C1-    C6-    C5-    F2
     3      2      8      6      9   180.00  15.16700   2 ;     C2-    C1-    C6-    C5
     3      2      8      9      9   180.00  15.16700   2 ;     C2-    C1-    C6-    F3
     3      4      5      6      9   180.00  15.16700   2 ;     C2-    C3-    C4-    C5
     3      4      5     38      9   180.00  15.16700   2 ;     C2-    C3-    C4-    H2
     3      4     10     11      9   45.00    4.25500   4 ;     C2-    C3-    C7-    C8 modified
     3      4     10     15      9   45.00    4.25500   4 ;     C2-    C3-    C7-   C12 modified
     4      3      2      8      9   180.00  15.16700   2 ;     C3-    C2-    C1-    C6
     4      5      6      7      9   180.00  15.16700   2 ;     C3-    C4-    C5-    F2
     4      5      6      8      9   180.00  15.16700   2 ;     C3-    C4-    C5-    C6
     4     10     11     12      9   180.00  15.16700   2 ;     C3-    C7-    C8-    C9
     4     10     11     39      9   180.00  15.16700   2 ;     C3-    C7-    C8-    H3
     4     10     15     14      9   180.00  15.16700   2 ;     C3-    C7-   C12-   C11
     4     10     15     16      9   180.00  15.16700   2 ;     C3-    C7-   C12-    F4
     5      4      3     37      9   180.00  15.16700   2 ;     C4-    C3-    C2-    H1
     5      4     10     11      9   45.00    4.25500   4 ;     C4-    C3-    C7-    C8 modified
     5      4     10     15      9   45.00    4.25500   4 ;     C4-    C3-    C7-   C12 modified
     5      6      8      9      9   180.00  15.16700   2 ;     C4-    C5-    C6-    F3
     6      5      4     10      9   180.00  15.16700   2 ;     C5-    C4-    C3-    C7
     7      6      5     38      9   180.00  15.16700   2 ;     F2-    C5-    C4-    H2
     7      6      8      9      9   180.00  15.16700   2 ;     F2-    C5-    C6-    F3
     8      2      3     37      9   180.00  15.16700   2 ;     C6-    C1-    C2-    H1
     8      6      5     38      9   180.00  15.16700   2 ;     C6-    C5-    C4-    H2
    10      4      3     37      9   180.00  15.16700   2 ;     C7-    C3-    C2-    H1
    10      4      5     38      9   180.00  15.16700   2 ;     C7-    C3-    C4-    H2
    10     11     12     13      9   180.00  15.16700   2 ;     C7-    C8-    C9-   C10
    10     11     12     40      9   180.00  15.16700   2 ;     C7-    C8-    C9-    H4
    10     15     14     13      9   180.00  15.16700   2 ;     C7-   C12-   C11-   C10
    10     15     14     41      9   180.00  15.16700   2 ;     C7-   C12-   C11-    H5
    11     10     15     14      9   180.00  15.16700   2 ;     C8-    C7-   C12-   C11
    11     10     15     16      9   180.00  15.16700   2 ;     C8-    C7-   C12-    F4
    11     12     13     14      9   180.00  15.16700   2 ;     C8-    C9-   C10-   C11
    11     12     13     17      9   180.00  15.16700   2 ;     C8-    C9-   C10-    O1
    12     11     10     15      9   180.00  15.16700   2 ;     C9-    C8-    C7-   C12
    12     13     14     15      9   180.00  15.16700   2 ;     C9-   C10-   C11-   C12
    12     13     14     41      9   180.00  15.16700   2 ;     C9-   C10-   C11-    H5
    12     13     17     18      9   135.00   1.19100   2 ;     C9-   C10-    O1-   C13 modified
    13     12     11     39      9   180.00  15.16700   2 ;    C10-    C9-    C8-    H3
    13     14     15     16      9   180.00  15.16700   2 ;    C10-   C11-   C12-    F4
    13     17     18     19      9   180.00  11.29680   2 ;    C10-    O1-   C13-    O2
    13     17     18     20      9   180.00  11.29680   2 ;    C10-    O1-   C13-   C14
    14     13     12     40      9   180.00  15.16700   2 ;    C11-   C10-    C9-    H4
    14     13     17     18      9   135.00   1.19100   2 ;    C11-   C10-    O1-   C13 modified
    15     10     11     39      9   180.00  15.16700   2 ;    C12-    C7-    C8-    H3
    15     14     13     17      9   180.00  15.16700   2 ;    C12-   C11-   C10-    O1
    16     15     14     41      9   180.00  15.16700   2 ;     F4-   C12-   C11-    H5
    17     13     12     40      9   180.00  15.16700   2 ;     O1-   C10-    C9-    H4
    17     13     14     41      9   180.00  15.16700   2 ;     O1-   C10-   C11-    H5
    17     18     20     21      9   45.00    2.43700   4 ;     O1-   C13-   C14-   C15 modified
    17     18     20     26      9   45.00    2.43700   4 ;     O1-   C13-   C14-   C19 modified
    18     20     21     22      9   180.00  15.16700   2 ;    C13-   C14-   C15-    F5
    18     20     21     23      9   180.00  15.16700   2 ;    C13-   C14-   C15-   C16
    18     20     26     25      9   180.00  15.16700   2 ;    C13-   C14-   C19-   C18
    18     20     26     27      9   180.00  15.16700   2 ;    C13-   C14-   C19-    F6
    19     18     20     21      9   45.00    2.43700   4 ;     O2-   C13-   C14-   C15 modified
    19     18     20     26      9   45.00    2.43700   4 ;     O2-   C13-   C14-   C19 modified
    20     21     23     24      9   180.00  15.16700   2 ;    C14-   C15-   C16-   C17
    20     21     23     42      9   180.00  15.16700   2 ;    C14-   C15-   C16-    H6
    20     26     25     24      9   180.00  15.16700   2 ;    C14-   C19-   C18-   C17
    20     26     25     43      9   180.00  15.16700   2 ;    C14-   C19-   C18-    H7
    21     20     26     25      9   180.00  15.16700   2 ;    C15-   C14-   C19-   C18
    21     20     26     27      9   180.00  15.16700   2 ;    C15-   C14-   C19-    F6
    21     23     24     25      9   180.00  15.16700   2 ;    C15-   C16-   C17-   C18
    21     23     24     28      9   180.00  15.16700   2 ;    C15-   C16-   C17-   C20
    22     21     20     26      9   180.00  15.16700   2 ;     F5-   C15-   C14-   C19
    22     21     23     24      9   180.00  15.16700   2 ;     F5-   C15-   C16-   C17
    22     21     23     42      9   180.00  15.16700   2 ;     F5-   C15-   C16-    H6
    23     21     20     26      9   180.00  15.16700   2 ;    C16-   C15-   C14-   C19
    23     24     25     26      9   180.00  15.16700   2 ;    C16-   C17-   C18-   C19
    23     24     25     43      9   180.00  15.16700   2 ;    C16-   C17-   C18-    H7
    23     24     28     29      9   180.00  14.63150   2 ;    C16-   C17-   C20-    O3 modified
    23     24     28     33      9   180.00  14.63150   2 ;    C16-   C17-   C20-    O4 modified
    23     24     28     44      9   180.00  14.63150   2 ;    C16-   C17-   C20-    H8 modified
    24     25     26     27      9   180.00  15.16700   2 ;    C17-   C18-   C19-    F6
    24     28     29     30      9     0.00   1.60387   3 ;    C17-   C20-    O3-   C21
    24     28     33     32      9     0.00   1.60387   3 ;    C17-   C20-    O4-   C23
    25     24     23     42      9   180.00  15.16700   2 ;    C18-   C17-   C16-    H6
    25     24     28     29      9   180.00   6.19470   2 ;    C18-   C17-   C20-    O3
    25     24     28     33      9   180.00   6.19470   2 ;    C18-   C17-   C20-    O4
    25     24     28     44      9   180.00  14.63150   2 ;    C18-   C17-   C20-    H8 modified
    26     25     24     28      9   180.00  15.16700   2 ;    C19-   C18-   C17-   C20
    27     26     25     43      9   180.00  15.16700   2 ;     F6-   C19-   C18-    H7
    28     24     23     42      9   180.00  15.16700   2 ;    C20-   C17-   C16-    H6
    28     24     25     43      9   180.00  15.16700   2 ;    C20-   C17-   C18-    H7
    28     29     30     31      9     0.00   1.60247   3 ;    C20-    O3-   C21-   C22
    28     29     30     31      9   180.00   0.41840   2 ;    C20-    O3-   C21-   C22
    28     29     30     45      9     0.00   1.60387   3 ;    C20-    O3-   C21-    H9
    28     29     30     46      9     0.00   1.60387   3 ;    C20-    O3-   C21-   H10
    28     33     32     31      9     0.00   1.60247   3 ;    C20-    O4-   C23-   C22
    28     33     32     31      9   180.00   0.41840   2 ;    C20-    O4-   C23-   C22
    28     33     32     48      9     0.00   1.60387   3 ;    C20-    O4-   C23-   H12
    28     33     32     49      9     0.00   1.60387   3 ;    C20-    O4-   C23-   H13
    29     28     33     32      9     0.00   0.41840   3 ;     O3-   C20-    O4-   C23
    29     28     33     32      9   180.00   3.55640   2 ;     O3-   C20-    O4-   C23
    29     28     33     32      9   180.00   5.64840   1 ;     O3-   C20-    O4-   C23
    29     30     31     32      9     0.00   0.65084   3 ;     O3-   C21-   C22-   C23
    29     30     31     34      9     0.00   0.65084   3 ;     O3-   C21-   C22-   C24
    29     30     31     47      9     0.00   0.00000   0 ;     O3-   C21-   C22-   H11
    29     30     31     47      9     0.00   1.04600   1 ;     O3-   C21-   C22-   H11
    30     29     28     33      9     0.00   0.41840   3 ;    C21-    O3-   C20-    O4
    30     29     28     33      9   180.00   3.55640   2 ;    C21-    O3-   C20-    O4
    30     29     28     33      9   180.00   5.64840   1 ;    C21-    O3-   C20-    O4
    30     29     28     44      9     0.00   1.60387   3 ;    C21-    O3-   C20-    H8
    30     31     32     33      9     0.00   0.65084   3 ;    C21-   C22-   C23-    O4
    30     31     32     48      9     0.00   0.65084   3 ;    C21-   C22-   C23-   H12
    30     31     32     49      9     0.00   0.65084   3 ;    C21-   C22-   C23-   H13
    30     31     34     35      9     0.00   0.75312   3 ;    C21-   C22-   C24-   C25
    30     31     34     35      9   180.00   0.83680   1 ;    C21-   C22-   C24-   C25
    30     31     34     35      9   180.00   1.04600   2 ;    C21-   C22-   C24-   C25
    30     31     34     50      9     0.00   0.66944   3 ;    C21-   C22-   C24-   H14
    30     31     34     51      9     0.00   0.66944   3 ;    C21-   C22-   C24-   H15
    31     34     35     36      9     0.00   0.75312   3 ;    C22-   C24-   C25-   C26
    31     34     35     36      9   180.00   0.83680   1 ;    C22-   C24-   C25-   C26
    31     34     35     36      9   180.00   1.04600   2 ;    C22-   C24-   C25-   C26
    31     34     35     52      9     0.00   0.66944   3 ;    C22-   C24-   C25-   H16
    31     34     35     53      9     0.00   0.66944   3 ;    C22-   C24-   C25-   H17
    32     31     30     45      9     0.00   0.65084   3 ;    C23-   C22-   C21-    H9
    32     31     30     46      9     0.00   0.65084   3 ;    C23-   C22-   C21-   H10
    32     31     34     35      9     0.00   0.75312   3 ;    C23-   C22-   C24-   C25
    32     31     34     35      9   180.00   0.83680   1 ;    C23-   C22-   C24-   C25
    32     31     34     35      9   180.00   1.04600   2 ;    C23-   C22-   C24-   C25
    32     31     34     50      9     0.00   0.66944   3 ;    C23-   C22-   C24-   H14
    32     31     34     51      9     0.00   0.66944   3 ;    C23-   C22-   C24-   H15
    32     33     28     44      9     0.00   1.60387   3 ;    C23-    O4-   C20-    H8
    33     32     31     34      9     0.00   0.65084   3 ;     O4-   C23-   C22-   C24
    33     32     31     47      9     0.00   0.00000   0 ;     O4-   C23-   C22-   H11
    33     32     31     47      9     0.00   1.04600   1 ;     O4-   C23-   C22-   H11
    34     31     30     45      9     0.00   0.65084   3 ;    C24-   C22-   C21-    H9
    34     31     30     46      9     0.00   0.65084   3 ;    C24-   C22-   C21-   H10
    34     31     32     48      9     0.00   0.65084   3 ;    C24-   C22-   C23-   H12
    34     31     32     49      9     0.00   0.65084   3 ;    C24-   C22-   C23-   H13
    34     35     36     54      9     0.00   0.66944   3 ;    C24-   C25-   C26-   H18
    34     35     36     55      9     0.00   0.66944   3 ;    C24-   C25-   C26-   H19
    34     35     36     56      9     0.00   0.66944   3 ;    C24-   C25-   C26-   H20
    35     34     31     47      9     0.00   0.66944   3 ;    C25-   C24-   C22-   H11
    36     35     34     50      9     0.00   0.66944   3 ;    C26-   C25-   C24-   H14
    36     35     34     51      9     0.00   0.66944   3 ;    C26-   C25-   C24-   H15
    39     11     12     40      9   180.00  15.16700   2 ;     H3-    C8-    C9-    H4
    45     30     31     47      9     0.00   0.65084   3 ;     H9-   C21-   C22-   H11
    46     30     31     47      9     0.00   0.65084   3 ;    H10-   C21-   C22-   H11
    47     31     32     48      9     0.00   0.65084   3 ;    H11-   C22-   C23-   H12
    47     31     32     49      9     0.00   0.65084   3 ;    H11-   C22-   C23-   H13
    47     31     34     50      9     0.00   0.62760   3 ;    H11-   C22-   C24-   H14
    47     31     34     51      9     0.00   0.62760   3 ;    H11-   C22-   C24-   H15
    50     34     35     52      9     0.00   0.62760   3 ;    H14-   C24-   C25-   H16
    50     34     35     53      9     0.00   0.62760   3 ;    H14-   C24-   C25-   H17
    51     34     35     52      9     0.00   0.62760   3 ;    H15-   C24-   C25-   H16
    51     34     35     53      9     0.00   0.62760   3 ;    H15-   C24-   C25-   H17
    52     35     36     54      9     0.00   0.62760   3 ;    H16-   C25-   C26-   H18
    52     35     36     55      9     0.00   0.62760   3 ;    H16-   C25-   C26-   H19
    52     35     36     56      9     0.00   0.62760   3 ;    H16-   C25-   C26-   H20
    53     35     36     54      9     0.00   0.62760   3 ;    H17-   C25-   C26-   H18
    53     35     36     55      9     0.00   0.62760   3 ;    H17-   C25-   C26-   H19
    53     35     36     56      9     0.00   0.62760   3 ;    H17-   C25-   C26-   H20

[ dihedrals ] ; impropers
; treated as propers in GROMACS to use correct AMBER analytical function
;    i      j      k      l   func   phase     kd      pn
     1      2      8      3      4   180.00   4.60240   2 ;     F1-    C1-    C6-    C2
     2      4      3     37      4   180.00   4.60240   2 ;     C1-    C3-    C2-    H1
     2      6      8      9      4   180.00   4.60240   2 ;     C1-    C5-    C6-    F3
     3      5      4     10      4   180.00   4.60240   2 ;     C2-    C4-    C3-    C7
     5      8      6      7      4   180.00   4.60240   2 ;     C4-    C6-    C5-    F2
     6      4      5     38      4   180.00   4.60240   2 ;     C5-    C3-    C4-    H2
    11     13     12     40      4   180.00   4.60240   2 ;     C8-   C10-    C9-    H4
    11     15     10      4      4   180.00   4.60240   2 ;     C8-   C12-    C7-    C3
    12     10     11     39      4   180.00   4.60240   2 ;     C9-    C7-    C8-    H3
    12     14     13     17      4   180.00   4.60240   2 ;     C9-   C11-   C10-    O1
    13     15     14     41      4   180.00   4.60240   2 ;    C10-   C12-   C11-    H5
    14     10     15     16      4   180.00   4.60240   2 ;    C11-    C7-   C12-    F4
    18     21     20     26      4   180.00   4.60240   2 ;    C13-   C15-   C14-   C19
    20     19     18     17      4   180.00   4.60240   2 ;    C14-    O2-   C13-    O1
    20     23     21     22      4   180.00   4.60240   2 ;    C14-   C16-   C15-    F5
    20     25     26     27      4   180.00   4.60240   2 ;    C14-   C18-   C19-    F6
    21     24     23     42      4   180.00   4.60240   2 ;    C15-   C17-   C16-    H6
    23     25     24     28      4   180.00   4.60240   2 ;    C16-   C18-   C17-   C20
    24     26     25     43      4   180.00   4.60240   2 ;    C17-   C19-   C18-    H7

[ system ]
 DIO

[ molecules ]
; Compound        nmols
 DIO              1000    
