Built with Packmol
56000
    1DIO     F1    1   8.143   9.257   8.220
    1DIO     C1    2   8.065   9.251   8.330
    1DIO     C2    3   7.921   9.260   8.316
    1DIO     C3    4   7.833   9.256   8.434
    1DIO     C4    5   7.898   9.240   8.566
    1DIO     C5    6   8.042   9.231   8.578
    1DIO     F2    7   8.098   9.212   8.699
    1DIO     C6    8   8.126   9.236   8.460
    1DIO     F3    9   8.260   9.228   8.472
    1DIO     C7   10   7.686   9.267   8.422
    1DIO     C8   11   7.609   9.363   8.504
    1DIO     C9   12   7.464   9.373   8.493
    1DIO    C10   13   7.392   9.281   8.407
    1DIO    C11   14   7.464   9.191   8.320
    1DIO    C12   15   7.608   9.183   8.329
    1DIO     F4   16   7.673   9.094   8.251
    1DIO     O1   17   7.260   9.312   8.383
    1DIO    C13   18   7.165   9.211   8.366
    1DIO     O2   19   7.164   9.089   8.395
    1DIO    C14   20   7.036   9.262   8.318
    1DIO    C15   21   6.970   9.378   8.383
    1DIO     F5   22   7.032   9.446   8.481
    1DIO    C16   23   6.839   9.426   8.342
    1DIO    C17   24   6.763   9.356   8.239
    1DIO    C18   25   6.832   9.252   8.162
    1DIO    C19   26   6.963   9.206   8.202
    1DIO     F6   27   7.026   9.120   8.119
    1DIO    C20   28   6.622   9.397   8.203
    1DIO     O3   29   6.553   9.463   8.310
    1DIO    C21   30   6.509   9.372   8.410
    1DIO    C22   31   6.420   9.263   8.351
    1DIO    C23   32   6.501   9.196   8.240
    1DIO     O4   33   6.545   9.292   8.144
    1DIO    C24   34   6.287   9.318   8.294
    1DIO    C25   35   6.197   9.391   8.394
    1DIO    C26   36   6.158   9.307   8.515
    1DIO     H1   37   7.879   9.271   8.217
    1DIO     H2   38   7.837   9.227   8.655
    1DIO     H3   39   7.661   9.431   8.570
    1DIO     H4   40   7.409   9.449   8.546
    1DIO     H5   41   7.410   9.126   8.252
    1DIO     H6   42   6.801   9.516   8.387
    1DIO     H7   43   6.789   9.212   8.071
    1DIO     H8   44   6.632   9.473   8.124
    1DIO     H9   45   6.596   9.328   8.461
    1DIO    H10   46   6.456   9.430   8.487
    1DIO    H11   47   6.398   9.189   8.428
    1DIO    H12   48   6.440   9.122   8.187
    1DIO    H13   49   6.587   9.142   8.281
    1DIO    H14   50   6.307   9.386   8.210
    1DIO    H15   51   6.231   9.234   8.252
    1DIO    H16   52   6.244   9.484   8.427
    1DIO    H17   53   6.105   9.420   8.341
    1DIO    H18   54   6.114   9.211   8.484
    1DIO    H19   55   6.245   9.286   8.578
    1DIO    H20   56   6.085   9.360   8.575
    2DIO     F1   57   6.084   7.503   6.002
    2DIO     C1   58   6.006   7.566   6.093
    2DIO     C2   59   5.862   7.565   6.076
    2DIO     C3   60   5.773   7.634   6.172
    2DIO     C4   61   5.839   7.703   6.286
    2DIO     C5   62   5.983   7.702   6.300
    2DIO     F2   63   6.038   7.762   6.407
    2DIO     C6   64   6.067   7.634   6.205
    2DIO     F3   65   6.200   7.635   6.219
    2DIO     C7   66   5.627   7.635   6.156
    2DIO     C8   67   5.550   7.761   6.161
    2DIO     C9   68   5.405   7.762   6.146
    2DIO    C10   69   5.332   7.637   6.135
    2DIO    C11   70   5.405   7.512   6.122
    2DIO    C12   71   5.549   7.511   6.134
    2DIO     F4   72   5.614   7.393   6.127
    2DIO     O1   73   5.200   7.646   6.097
    2DIO    C13   74   5.106   7.556   6.145
    2DIO     O2   75   5.105   7.478   6.244
    2DIO    C14   76   4.976   7.568   6.077
    2DIO    C15   77   4.910   7.698   6.056
    2DIO     F5   78   4.973   7.812   6.092
    2DIO    C16   79   4.779   7.711   5.994
    2DIO    C17   80   4.704   7.592   5.956
    2DIO    C18   81   4.772   7.464   5.960
    2DIO    C19   82   4.904   7.452   6.020
    2DIO     F6   83   4.966   7.332   6.007
    2DIO    C20   84   4.563   7.603   5.903
    2DIO     O3   85   4.493   7.720   5.947
    2DIO    C21   86   4.449   7.711   6.082
    2DIO    C22   87   4.361   7.588   6.102
    2DIO    C23   88   4.441   7.467   6.056
    2DIO     O4   89   4.486   7.484   5.921
    2DIO    C24   90   4.228   7.596   6.023
    2DIO    C25   91   4.137   7.715   6.057
    2DIO    C26   92   4.099   7.723   6.204
    2DIO     H1   93   5.819   7.512   5.991
    2DIO     H2   94   5.778   7.747   6.364
    2DIO     H3   95   5.601   7.856   6.171
    2DIO     H4   96   5.350   7.855   6.141
    2DIO     H5   97   5.350   7.419   6.108
    2DIO     H6   98   4.741   7.810   5.974
    2DIO     H7   99   4.729   7.376   5.912
    2DIO     H8  100   4.573   7.615   5.794
    2DIO     H9  101   4.536   7.707   6.148
    2DIO    H10  102   4.397   7.803   6.106
    2DIO    H11  103   4.338   7.577   6.208
    2DIO    H12  104   4.380   7.376   6.059
    2DIO    H13  105   4.527   7.450   6.121
    2DIO    H14  106   4.248   7.599   5.915
    2DIO    H15  107   4.171   7.504   6.042
    2DIO    H16  108   4.184   7.809   6.026
    2DIO    H17  109   4.045   7.706   5.998
    2DIO    H18  110   4.055   7.629   6.239
    2DIO    H19  111   4.185   7.746   6.267
    2DIO    H20  112   4.025   7.803   6.219
    3DIO     F1  113   7.796   9.750   3.378
    3DIO     C1  114   7.718   9.720   3.484
    3DIO     C2  115   7.574   9.733   3.472
    3DIO     C3  116   7.485   9.703   3.587
    3DIO     C4  117   7.551   9.658   3.712
    3DIO     C5  118   7.695   9.647   3.721
    3DIO     F2  119   7.751   9.602   3.835
    3DIO     C6  120   7.779   9.677   3.608
    3DIO     F3  121   7.913   9.667   3.618
    3DIO     C7  122   7.339   9.716   3.577
    3DIO     C8  123   7.262   9.792   3.678
    3DIO     C9  124   7.117   9.804   3.669
    3DIO    C10  125   7.045   9.733   3.566
    3DIO    C11  126   7.117   9.664   3.460
    3DIO    C12  127   7.261   9.654   3.468
    3DIO     F4  128   7.326   9.584   3.373
    3DIO     O1  129   6.912   9.768   3.548
    3DIO    C13  130   6.818   9.674   3.510
    3DIO     O2  131   6.817   9.548   3.512
    3DIO    C14  132   6.689   9.734   3.475
    3DIO    C15  133   6.622   9.833   3.563
    3DIO     F5  134   6.685   9.877   3.674
    3DIO    C16  135   6.492   9.888   3.533
    3DIO    C17  136   6.416   9.842   3.417
    3DIO    C18  137   6.485   9.758   3.320
    3DIO    C19  138   6.616   9.704   3.349
    3DIO     F6  139   6.679   9.638   3.249
    3DIO    C20  140   6.275   9.891   3.392
    3DIO     O3  141   6.205   9.931   3.510
    3DIO    C21  142   6.162   9.821   3.589
    3DIO    C22  143   6.073   9.728   3.507
    3DIO    C23  144   6.154   9.686   3.384
    3DIO     O4  145   6.198   9.800   3.312
    3DIO    C24  146   5.940   9.793   3.463
    3DIO    C25  147   5.849   9.843   3.576
    3DIO    C26  148   5.811   9.735   3.676
    3DIO     H1  149   7.532   9.764   3.378
    3DIO     H2  150   7.490   9.626   3.796
    3DIO     H3  151   7.313   9.844   3.758
    3DIO     H4  152   7.062   9.867   3.738
    3DIO     H5  153   7.063   9.615   3.380
    3DIO     H6  154   6.454   9.967   3.597
    3DIO     H7  155   6.442   9.739   3.223
    3DIO     H8  156   6.285   9.982   3.331
    3DIO     H9  157   6.248   9.767   3.628
    3DIO    H10  158   6.109   9.861   3.676
    3DIO    H11  159   6.050   9.638   3.566
    3DIO    H12  160   6.093   9.625   3.316
    3DIO    H13  161   6.240   9.625   3.413
    3DIO    H14  162   5.960   9.878   3.396
    3DIO    H15  163   5.884   9.720   3.404
    3DIO    H16  164   5.897   9.926   3.629
    3DIO    H17  165   5.758   9.883   3.532
    3DIO    H18  166   5.767   9.648   3.626
    3DIO    H19  167   5.898   9.701   3.734
    3DIO    H20  168   5.737   9.774   3.747
    4DIO     F1  169   2.510   3.925   4.689
    4DIO     C1  170   2.432   3.961   4.793
    4DIO     C2  171   2.288   3.964   4.776
    4DIO     C3  172   2.199   4.005   4.887
    4DIO     C4  173   2.265   4.041   5.015
    4DIO     C5  174   2.409   4.036   5.029
    4DIO     F2  175   2.464   4.065   5.149
    4DIO     C6  176   2.493   3.996   4.919
    4DIO     F3  177   2.626   3.994   4.933
    4DIO     C7  178   2.053   4.011   4.872
    4DIO     C8  179   1.976   4.131   4.911
    4DIO     C9  180   1.831   4.136   4.896
    4DIO    C10  181   1.758   4.018   4.852
    4DIO    C11  182   1.831   3.901   4.806
    4DIO    C12  183   1.975   3.897   4.818
    4DIO     F4  184   2.040   3.785   4.779
    4DIO     O1  185   1.626   4.037   4.818
    4DIO    C13  186   1.532   3.937   4.841
    4DIO     O2  187   1.531   3.835   4.915
    4DIO    C14  188   1.402   3.967   4.777
    4DIO    C15  189   1.336   4.098   4.793
    4DIO     F5  190   1.399   4.198   4.858
    4DIO    C16  191   1.205   4.127   4.737
    4DIO    C17  192   1.130   4.023   4.668
    4DIO    C18  193   1.198   3.898   4.637
    4DIO    C19  194   1.330   3.870   4.692
    4DIO     F6  195   1.392   3.759   4.647
    4DIO    C20  196   0.989   4.048   4.619
    4DIO     O3  197   0.919   4.149   4.693
    4DIO    C21  198   0.875   4.103   4.821
    4DIO    C22  199   0.787   3.980   4.807
    4DIO    C23  200   0.867   3.876   4.730
    4DIO     O4  201   0.912   3.928   4.605
    4DIO    C24  202   0.654   4.009   4.734
    4DIO    C25  203   0.563   4.114   4.798
    4DIO    C26  204   0.525   4.082   4.942
    4DIO     H1  205   2.245   3.936   4.680
    4DIO     H2  206   2.204   4.062   5.103
    4DIO     H3  207   2.027   4.219   4.946
    4DIO     H4  208   1.776   4.226   4.917
    4DIO     H5  209   1.776   3.816   4.768
    4DIO     H6  210   1.167   4.228   4.744
    4DIO     H7  211   1.155   3.826   4.568
    4DIO     H8  212   0.999   4.088   4.518
    4DIO     H9  213   0.962   4.081   4.884
    4DIO    H10  214   0.823   4.186   4.870
    4DIO    H11  215   0.764   3.940   4.907
    4DIO    H12  216   0.806   3.787   4.710
    4DIO    H13  217   0.953   3.842   4.789
    4DIO    H14  218   0.674   4.040   4.631
    4DIO    H15  219   0.597   3.915   4.727
    4DIO    H16  220   0.610   4.213   4.794
    4DIO    H17  221   0.471   4.122   4.739
    4DIO    H18  222   0.481   3.983   4.950
    4DIO    H19  223   0.611   4.088   5.009
    4DIO    H20  224   0.451   4.155   4.978
    5DIO     F1  225   6.910   1.594   3.452
    5DIO     C1  226   6.833   1.600   3.342
    5DIO     C2  227   6.688   1.591   3.356
    5DIO     C3  228   6.600   1.596   3.238
    5DIO     C4  229   6.665   1.613   3.106
    5DIO     C5  230   6.809   1.622   3.095
    5DIO     F2  231   6.865   1.642   2.973
    5DIO     C6  232   6.893   1.616   3.212
    5DIO     F3  233   7.027   1.624   3.200
    5DIO     C7  234   6.453   1.585   3.250
    5DIO     C8  235   6.376   1.489   3.167
    5DIO     C9  236   6.231   1.479   3.179
    5DIO    C10  237   6.159   1.571   3.265
    5DIO    C11  238   6.231   1.661   3.353
    5DIO    C12  239   6.375   1.669   3.343
    5DIO     F4  240   6.440   1.757   3.422
    5DIO     O1  241   6.027   1.540   3.289
    5DIO    C13  242   5.932   1.641   3.307
    5DIO     O2  243   5.931   1.763   3.278
    5DIO    C14  244   5.803   1.589   3.354
    5DIO    C15  245   5.737   1.474   3.289
    5DIO     F5  246   5.799   1.407   3.190
    5DIO    C16  247   5.606   1.426   3.329
    5DIO    C17  248   5.530   1.495   3.433
    5DIO    C18  249   5.599   1.598   3.510
    5DIO    C19  250   5.731   1.645   3.470
    5DIO     F6  251   5.793   1.730   3.554
    5DIO    C20  252   5.389   1.453   3.468
    5DIO     O3  253   5.320   1.389   3.361
    5DIO    C21  254   5.276   1.480   3.261
    5DIO    C22  255   5.187   1.588   3.321
    5DIO    C23  256   5.268   1.655   3.432
    5DIO     O4  257   5.312   1.558   3.527
    5DIO    C24  258   5.054   1.533   3.378
    5DIO    C25  259   4.964   1.461   3.277
    5DIO    C26  260   4.925   1.546   3.157
    5DIO     H1  261   6.646   1.580   3.455
    5DIO     H2  262   6.605   1.627   3.017
    5DIO     H3  263   6.428   1.422   3.101
    5DIO     H4  264   6.176   1.404   3.125
    5DIO     H5  265   6.177   1.725   3.421
    5DIO     H6  266   5.568   1.335   3.283
    5DIO     H7  267   5.556   1.637   3.601
    5DIO     H8  268   5.399   1.377   3.546
    5DIO     H9  269   5.363   1.525   3.211
    5DIO    H10  270   5.223   1.423   3.184
    5DIO    H11  271   5.165   1.663   3.244
    5DIO    H12  272   5.207   1.728   3.486
    5DIO    H13  273   5.354   1.709   3.391
    5DIO    H14  274   5.074   1.465   3.461
    5DIO    H15  275   4.998   1.617   3.420
    5DIO    H16  276   5.011   1.369   3.243
    5DIO    H17  277   4.872   1.431   3.330
    5DIO    H18  278   4.881   1.641   3.188
    5DIO    H19  279   5.012   1.567   3.093
    5DIO    H20  280   4.852   1.493   3.096
    6DIO     F1  281   5.609   7.189   2.397
    6DIO     C1  282   5.531   7.083   2.368
    6DIO     C2  283   5.387   7.094   2.380
    6DIO     C3  284   5.299   6.980   2.352
    6DIO     C4  285   5.364   6.854   2.308
    6DIO     C5  286   5.508   6.845   2.297
    6DIO     F2  287   5.564   6.730   2.253
    6DIO     C6  288   5.592   6.959   2.326
    6DIO     F3  289   5.726   6.948   2.316
    6DIO     C7  290   5.152   6.989   2.365
    6DIO     C8  291   5.075   6.889   2.442
    6DIO     C9  292   4.930   6.898   2.454
    6DIO    C10  293   4.858   7.001   2.382
    6DIO    C11  294   4.930   7.105   2.311
    6DIO    C12  295   5.074   7.098   2.301
    6DIO     F4  296   5.139   7.193   2.231
    6DIO     O1  297   4.726   7.018   2.417
    6DIO    C13  298   4.631   7.056   2.322
    6DIO     O2  299   4.630   7.053   2.196
    6DIO    C14  300   4.502   7.092   2.382
    6DIO    C15  301   4.436   7.005   2.481
    6DIO     F5  302   4.498   6.894   2.527
    6DIO    C16  303   4.305   7.035   2.537
    6DIO    C17  304   4.229   7.150   2.490
    6DIO    C18  305   4.298   7.246   2.404
    6DIO    C19  306   4.429   7.217   2.350
    6DIO     F6  307   4.492   7.317   2.284
    6DIO    C20  308   4.088   7.176   2.538
    6DIO     O3  309   4.019   7.058   2.579
    6DIO    C21  310   3.975   6.979   2.470
    6DIO    C22  311   3.886   7.060   2.376
    6DIO    C23  312   3.967   7.182   2.333
    6DIO     O4  313   4.011   7.256   2.447
    6DIO    C24  314   3.753   7.104   2.441
    6DIO    C25  315   3.663   6.991   2.491
    6DIO    C26  316   3.624   6.890   2.384
    6DIO     H1  317   5.345   7.189   2.411
    6DIO     H2  318   5.303   6.770   2.277
    6DIO     H3  319   5.127   6.810   2.494
    6DIO     H4  320   4.875   6.830   2.517
    6DIO     H5  321   4.876   7.185   2.262
    6DIO     H6  322   4.267   6.972   2.616
    6DIO     H7  323   4.255   7.344   2.384
    6DIO     H8  324   4.098   7.237   2.628
    6DIO     H9  325   4.062   6.939   2.416
    6DIO    H10  326   3.922   6.892   2.510
    6DIO    H11  327   3.864   7.000   2.287
    6DIO    H12  328   3.906   7.249   2.272
    6DIO    H13  329   4.053   7.153   2.272
    6DIO    H14  330   3.773   7.171   2.525
    6DIO    H15  331   3.697   7.163   2.368
    6DIO    H16  332   3.710   6.939   2.575
    6DIO    H17  333   3.571   7.036   2.531
    6DIO    H18  334   3.580   6.940   2.297
    6DIO    H19  335   3.711   6.832   2.351
    6DIO    H20  336   3.551   6.820   2.424
    7DIO     F1  337   9.955   0.136   5.172
    7DIO     C1  338   9.877   0.232   5.224
    7DIO     C2  339   9.733   0.224   5.210
    7DIO     C3  340   9.644   0.329   5.264
    7DIO     C4  341   9.710   0.441   5.336
    7DIO     C5  342   9.854   0.447   5.349
    7DIO     F2  343   9.910   0.549   5.418
    7DIO     C6  344   9.938   0.343   5.294
    7DIO     F3  345  10.072   0.351   5.306
    7DIO     C7  346   9.498   0.322   5.250
    7DIO     C8  347   9.421   0.438   5.198
    7DIO     C9  348   9.276   0.432   5.184
    7DIO    C10  349   9.204   0.315   5.230
    7DIO    C11  350   9.276   0.197   5.274
    7DIO    C12  351   9.420   0.202   5.286
    7DIO     F4  352   9.485   0.093   5.332
    7DIO     O1  353   9.071   0.306   5.192
    7DIO    C13  354   8.977   0.247   5.276
    7DIO     O2  355   8.976   0.221   5.399
    7DIO    C14  356   8.848   0.227   5.209
    7DIO    C15  357   8.781   0.334   5.132
    7DIO     F5  358   8.844   0.452   5.114
    7DIO    C16  359   8.651   0.318   5.072
    7DIO    C17  360   8.575   0.195   5.091
    7DIO    C18  361   8.644   0.081   5.151
    7DIO    C19  362   8.775   0.098   5.210
    7DIO     F6  363   8.838  -0.015   5.252
    7DIO    C20  364   8.434   0.181   5.038
    7DIO     O3  365   8.364   0.305   5.025
    7DIO    C21  366   8.321   0.357   5.150
    7DIO    C22  367   8.232   0.257   5.222
    7DIO    C23  368   8.313   0.127   5.235
    7DIO     O4  369   8.357   0.082   5.108
    7DIO    C24  370   8.099   0.229   5.149
    7DIO    C25  371   8.008   0.350   5.126
    7DIO    C26  372   7.970   0.423   5.253
    7DIO     H1  373   9.691   0.139   5.158
    7DIO     H2  374   9.649   0.516   5.386
    7DIO     H3  375   9.472   0.527   5.165
    7DIO     H4  376   9.221   0.513   5.138
    7DIO     H5  377   9.222   0.108   5.304
    7DIO     H6  378   8.613   0.398   5.009
    7DIO     H7  379   8.601  -0.018   5.148
    7DIO     H8  380   8.444   0.142   4.935
    7DIO     H9  381   8.407   0.383   5.211
    7DIO    H10  382   8.268   0.451   5.130
    7DIO    H11  383   8.209   0.294   5.323
    7DIO    H12  384   8.252   0.048   5.279
    7DIO    H13  385   8.399   0.142   5.302
    7DIO    H14  386   8.119   0.182   5.051
    7DIO    H15  387   8.043   0.154   5.206
    7DIO    H16  388   8.056   0.420   5.056
    7DIO    H17  389   7.917   0.315   5.076
    7DIO    H18  390   7.926   0.354   5.327
    7DIO    H19  391   8.057   0.472   5.299
    7DIO    H20  392   7.896   0.501   5.231
    8DIO     F1  393   5.099   9.457   6.928
    8DIO     C1  394   5.021   9.425   6.822
    8DIO     C2  395   4.877   9.421   6.839
    8DIO     C3  396   4.788   9.385   6.726
    8DIO     C4  397   4.854   9.356   6.597
    8DIO     C5  398   4.998   9.360   6.583
    8DIO     F2  399   5.053   9.337   6.462
    8DIO     C6  400   5.082   9.395   6.695
    8DIO     F3  401   5.216   9.398   6.681
    8DIO     C7  402   4.642   9.379   6.741
    8DIO     C8  403   4.565   9.261   6.697
    8DIO     C9  404   4.420   9.255   6.711
    8DIO    C10  405   4.347   9.371   6.760
    8DIO    C11  406   4.420   9.485   6.812
    8DIO    C12  407   4.564   9.490   6.800
    8DIO     F4  408   4.629   9.600   6.844
    8DIO     O1  409   4.215   9.350   6.793
    8DIO    C13  410   4.121   9.451   6.776
    8DIO     O2  411   4.120   9.556   6.706
    8DIO    C14  412   3.992   9.418   6.837
    8DIO    C15  413   3.925   9.288   6.816
    8DIO     F5  414   3.988   9.191   6.746
    8DIO    C16  415   3.795   9.257   6.870
    8DIO    C17  416   3.719   9.357   6.944
    8DIO    C18  417   3.788   9.481   6.981
    8DIO    C19  418   3.919   9.511   6.927
    8DIO     F6  419   3.982   9.620   6.977
    8DIO    C20  420   3.578   9.330   6.991
    8DIO     O3  421   3.508   9.233   6.913
    8DIO    C21  422   3.465   9.284   6.788
    8DIO    C22  423   3.376   9.407   6.807
    8DIO    C23  424   3.457   9.507   6.889
    8DIO     O4  425   3.501   9.449   7.011
    8DIO    C24  426   3.243   9.374   6.879
    8DIO    C25  427   3.152   9.272   6.810
    8DIO    C26  428   3.114   9.310   6.668
    8DIO     H1  429   4.834   9.445   6.936
    8DIO     H2  430   4.793   9.338   6.508
    8DIO     H3  431   4.616   9.174   6.657
    8DIO     H4  432   4.365   9.166   6.686
    8DIO     H5  433   4.366   9.569   6.854
    8DIO     H6  434   3.756   9.156   6.858
    8DIO     H7  435   3.745   9.549   7.053
    8DIO     H8  436   3.588   9.285   7.091
    8DIO     H9  437   3.551   9.309   6.726
    8DIO    H10  438   3.412   9.204   6.735
    8DIO    H11  439   3.353   9.451   6.709
    8DIO    H12  440   3.395   9.595   6.913
    8DIO    H13  441   3.543   9.544   6.831
    8DIO    H14  442   3.263   9.338   6.981
    8DIO    H15  443   3.187   9.468   6.890
    8DIO    H16  444   3.200   9.173   6.810
    8DIO    H17  445   3.061   9.262   6.869
    8DIO    H18  446   3.070   9.411   6.664
    8DIO    H19  447   3.200   9.308   6.601
    8DIO    H20  448   3.040   9.240   6.628
    9DIO     F1  449   9.940   2.860   4.986
    9DIO     C1  450   9.863   2.923   4.896
    9DIO     C2  451   9.719   2.908   4.903
    9DIO     C3  452   9.630   2.974   4.805
    9DIO     C4  453   9.695   3.058   4.702
    9DIO     C5  454   9.840   3.072   4.697
    9DIO     F2  455   9.895   3.153   4.605
    9DIO     C6  456   9.923   3.005   4.794
    9DIO     F3  457  10.057   3.018   4.788
    9DIO     C7  458   9.484   2.959   4.810
    9DIO     C8  459   9.406   2.921   4.689
    9DIO     C9  460   9.262   2.906   4.694
    9DIO    C10  461   9.189   2.939   4.815
    9DIO    C11  462   9.262   2.969   4.937
    9DIO    C12  463   9.406   2.981   4.933
    9DIO     F4  464   9.471   3.014   5.047
    9DIO     O1  465   9.057   2.900   4.819
    9DIO    C13  466   8.962   2.976   4.888
    9DIO     O2  467   8.962   3.095   4.927
    9DIO    C14  468   8.833   2.908   4.900
    9DIO    C15  469   8.767   2.844   4.784
    9DIO     F5  470   8.830   2.839   4.665
    9DIO    C16  471   8.636   2.782   4.793
    9DIO    C17  472   8.560   2.786   4.918
    9DIO    C18  473   8.629   2.833   5.038
    9DIO    C19  474   8.761   2.894   5.029
    9DIO     F6  475   8.823   2.922   5.145
    9DIO    C20  476   8.420   2.732   4.926
    9DIO     O3  477   8.350   2.733   4.801
    9DIO    C21  478   8.306   2.864   4.764
    9DIO    C22  479   8.217   2.924   4.872
    9DIO    C23  480   8.298   2.922   5.002
    9DIO     O4  481   8.342   2.790   5.032
    9DIO    C24  482   8.085   2.848   4.891
    9DIO    C25  483   7.994   2.839   4.768
    9DIO    C26  484   7.956   2.974   4.710
    9DIO     H1  485   9.676   2.847   4.982
    9DIO     H2  486   9.635   3.117   4.634
    9DIO     H3  487   9.458   2.899   4.597
    9DIO     H4  488   9.207   2.871   4.608
    9DIO     H5  489   9.207   2.988   5.029
    9DIO     H6  490   8.598   2.729   4.707
    9DIO     H7  491   8.586   2.818   5.136
    9DIO     H8  492   8.429   2.626   4.952
    9DIO     H9  493   8.393   2.928   4.745
    9DIO    H10  494   8.254   2.856   4.669
    9DIO    H11  495   8.195   3.028   4.847
    9DIO    H12  496   8.237   2.956   5.086
    9DIO    H13  497   8.384   2.990   4.995
    9DIO    H14  498   8.105   2.745   4.926
    9DIO    H15  499   8.028   2.896   4.972
    9DIO    H16  500   8.041   2.778   4.690
    9DIO    H17  501   7.902   2.786   4.797
    9DIO    H18  502   7.912   3.039   4.787
    9DIO    H19  503   8.042   3.026   4.667
    9DIO    H20  504   7.882   2.961   4.631
   10DIO     F1  505   2.892   5.911   5.121
   10DIO     C1  506   2.814   5.872   5.225
   10DIO     C2  507   2.670   5.885   5.214
   10DIO     C3  508   2.581   5.847   5.326
   10DIO     C4  509   2.647   5.792   5.447
   10DIO     C5  510   2.791   5.780   5.455
   10DIO     F2  511   2.847   5.726   5.565
   10DIO     C6  512   2.875   5.819   5.344
   10DIO     F3  513   3.009   5.808   5.354
   10DIO     C7  514   2.435   5.860   5.317
   10DIO     C8  515   2.358   5.928   5.424
   10DIO     C9  516   2.213   5.941   5.416
   10DIO    C10  517   2.141   5.878   5.307
   10DIO    C11  518   2.213   5.818   5.197
   10DIO    C12  519   2.357   5.807   5.204
   10DIO     F4  520   2.422   5.746   5.103
   10DIO     O1  521   2.008   5.915   5.293
   10DIO    C13  522   1.914   5.824   5.247
   10DIO     O2  523   1.913   5.698   5.239
   10DIO    C14  524   1.785   5.886   5.217
   10DIO    C15  525   1.718   5.978   5.312
   10DIO     F5  526   1.781   6.013   5.427
   10DIO    C16  527   1.588   6.036   5.288
   10DIO    C17  528   1.512   5.999   5.168
   10DIO    C18  529   1.581   5.923   5.065
   10DIO    C19  530   1.712   5.867   5.089
   10DIO     F6  531   1.775   5.810   4.984
   10DIO    C20  532   1.371   6.050   5.147
   10DIO     O3  533   1.301   6.080   5.268
   10DIO    C21  534   1.258   5.964   5.337
   10DIO    C22  535   1.169   5.878   5.248
   10DIO    C23  536   1.250   5.846   5.122
   10DIO     O4  537   1.294   5.966   5.059
   10DIO    C24  538   1.036   5.947   5.210
   10DIO    C25  539   0.945   5.987   5.327
   10DIO    C26  540   0.907   5.871   5.417
   10DIO     H1  541   2.628   5.924   5.122
   10DIO     H2  542   2.586   5.753   5.528
   10DIO     H3  543   2.409   5.973   5.508
   10DIO     H4  544   2.158   5.997   5.490
   10DIO     H5  545   2.159   5.776   5.113
   10DIO     H6  546   1.550   6.109   5.358
   10DIO     H7  547   1.538   5.912   4.966
   10DIO     H8  548   1.381   6.145   5.094
   10DIO     H9  549   1.344   5.907   5.372
   10DIO    H10  550   1.205   5.996   5.427
   10DIO    H11  551   1.146   5.784   5.300
   10DIO    H12  552   1.189   5.791   5.050
   10DIO    H13  553   1.336   5.783   5.146
   10DIO    H14  554   1.056   6.037   5.150
   10DIO    H15  555   0.980   5.879   5.145
   10DIO    H16  556   0.993   6.066   5.386
   10DIO    H17  557   0.854   6.031   5.286
   10DIO    H18  558   0.863   5.789   5.360
   10DIO    H19  559   0.994   5.832   5.472
   10DIO    H20  560   0.833   5.904   5.491
   11DIO     F1  561   4.902   4.165   4.556
   11DIO     C1  562   4.824   4.057   4.580
   11DIO     C2  563   4.680   4.074   4.585
   11DIO     C3  564   4.591   3.958   4.612
   11DIO     C4  565   4.657   3.827   4.632
   11DIO     C5  566   4.801   3.814   4.626
   11DIO     F2  567   4.857   3.691   4.640
   11DIO     C6  568   4.885   3.928   4.599
   11DIO     F3  569   5.019   3.914   4.595
   11DIO     C7  570   4.445   3.973   4.619
   11DIO     C8  571   4.368   3.919   4.734
   11DIO     C9  572   4.223   3.933   4.740
   11DIO    C10  573   4.151   3.991   4.629
   11DIO    C11  574   4.223   4.052   4.519
   11DIO    C12  575   4.367   4.040   4.513
   11DIO     F4  576   4.432   4.092   4.407
   11DIO     O1  577   4.018   4.023   4.652
   11DIO    C13  578   3.924   4.013   4.550
   11DIO     O2  579   3.923   3.952   4.440
   11DIO    C14  580   3.795   4.072   4.587
   11DIO    C15  581   3.729   4.041   4.716
   11DIO     F5  582   3.791   3.963   4.807
   11DIO    C16  583   3.598   4.093   4.751
   11DIO    C17  584   3.522   4.173   4.656
   11DIO    C18  585   3.591   4.219   4.536
   11DIO    C19  586   3.722   4.168   4.502
   11DIO     F6  587   3.785   4.227   4.397
   11DIO    C20  588   3.381   4.219   4.687
   11DIO     O3  589   3.312   4.133   4.778
   11DIO    C21  590   3.268   4.012   4.717
   11DIO    C22  591   3.179   4.040   4.597
   11DIO    C23  592   3.260   4.130   4.503
   11DIO     O4  593   3.304   4.247   4.570
   11DIO    C24  594   3.046   4.110   4.634
   11DIO    C25  595   2.956   4.033   4.731
   11DIO    C26  596   2.917   3.894   4.682
   11DIO     H1  597   4.638   4.172   4.568
   11DIO     H2  598   4.596   3.738   4.642
   11DIO     H3  599   4.419   3.874   4.817
   11DIO     H4  600   4.168   3.902   4.828
   11DIO     H5  601   4.169   4.100   4.438
   11DIO     H6  602   3.560   4.073   4.851
   11DIO     H7  603   3.548   4.297   4.474
   11DIO     H8  604   3.391   4.315   4.739
   11DIO     H9  605   3.355   3.952   4.688
   11DIO    H10  606   3.215   3.954   4.793
   11DIO    H11  607   3.156   3.946   4.545
   11DIO    H12  608   3.199   4.161   4.417
   11DIO    H13  609   3.346   4.075   4.462
   11DIO    H14  610   3.066   4.209   4.678
   11DIO    H15  611   2.990   4.128   4.542
   11DIO    H16  612   3.003   4.025   4.830
   11DIO    H17  613   2.864   4.091   4.746
   11DIO    H18  614   2.873   3.898   4.582
   11DIO    H19  615   3.004   3.827   4.679
   11DIO    H20  616   2.843   3.850   4.750
   12DIO     F1  617   6.477   0.380   9.816
   12DIO     C1  618   6.399   0.286   9.758
   12DIO     C2  619   6.255   0.294   9.773
   12DIO     C3  620   6.167   0.192   9.712
   12DIO     C4  621   6.232   0.085   9.635
   12DIO     C5  622   6.376   0.079   9.621
   12DIO     F2  623   6.432  -0.018   9.546
   12DIO     C6  624   6.460   0.180   9.682
   12DIO     F3  625   6.594   0.173   9.669
   12DIO     C7  626   6.020   0.198   9.727
   12DIO     C8  627   5.943   0.080   9.772
   12DIO     C9  628   5.798   0.085   9.787
   12DIO    C10  629   5.726   0.204   9.747
   12DIO    C11  630   5.798   0.325   9.710
   12DIO    C12  631   5.942   0.320   9.698
   12DIO     F4  632   6.007   0.431   9.658
   12DIO     O1  633   5.594   0.211   9.786
   12DIO    C13  634   5.499   0.274   9.706
   12DIO     O2  635   5.498   0.307   9.584
   12DIO    C14  636   5.370   0.291   9.773
   12DIO    C15  637   5.304   0.179   9.844
   12DIO     F5  638   5.366   0.060   9.856
   12DIO    C16  639   5.173   0.192   9.905
   12DIO    C17  640   5.097   0.316   9.894
   12DIO    C18  641   5.166   0.433   9.840
   12DIO    C19  642   5.297   0.420   9.780
   12DIO     F6  643   5.360   0.535   9.745
   12DIO    C20  644   4.956   0.327   9.947
   12DIO     O3  645   4.887   0.202   9.953
   12DIO    C21  646   4.843   0.158   9.825
   12DIO    C22  647   4.754   0.262   9.758
   12DIO    C23  648   4.835   0.392   9.753
   12DIO     O4  649   4.879   0.429   9.883
   12DIO    C24  650   4.621   0.286   9.834
   12DIO    C25  651   4.531   0.163   9.849
   12DIO    C26  652   4.492   0.098   9.718
   12DIO     H1  653   6.213   0.376   9.830
   12DIO     H2  654   6.171   0.013   9.580
   12DIO     H3  655   5.995  -0.011   9.800
   12DIO     H4  656   5.743   0.001   9.827
   12DIO     H5  657   5.744   0.415   9.686
   12DIO     H6  658   5.135   0.108   9.963
   12DIO     H7  659   5.123   0.532   9.849
   12DIO     H8  660   4.966   0.359  10.052
   12DIO     H9  661   4.930   0.135   9.762
   12DIO    H10  662   4.790   0.063   9.839
   12DIO    H11  663   4.732   0.231   9.656
   12DIO    H12  664   4.774   0.474   9.714
   12DIO    H13  665   4.921   0.381   9.686
   12DIO    H14  666   4.641   0.326   9.934
   12DIO    H15  667   4.565   0.363   9.780
   12DIO    H16  668   4.578   0.089   9.915
   12DIO    H17  669   4.439   0.195   9.901
   12DIO    H18  670   4.448   0.170   9.649
   12DIO    H19  671   4.579   0.052   9.669
   12DIO    H20  672   4.419   0.019   9.735
   13DIO     F1  673   8.148   4.312   8.480
   13DIO     C1  674   8.070   4.415   8.519
   13DIO     C2  675   7.926   4.404   8.506
   13DIO     C3  676   7.838   4.516   8.545
   13DIO     C4  677   7.903   4.637   8.600
   13DIO     C5  678   8.047   4.645   8.612
   13DIO     F2  679   8.103   4.755   8.667
   13DIO     C6  680   8.131   4.534   8.573
   13DIO     F3  681   8.265   4.544   8.583
   13DIO     C7  682   7.691   4.508   8.531
   13DIO     C8  683   7.614   4.614   8.464
   13DIO     C9  684   7.469   4.607   8.451
   13DIO    C10  685   7.397   4.497   8.513
   13DIO    C11  686   7.469   4.387   8.574
   13DIO    C12  687   7.613   4.394   8.584
   13DIO     F4  688   7.678   4.292   8.645
   13DIO     O1  689   7.265   4.483   8.477
   13DIO    C13  690   7.170   4.437   8.568
   13DIO     O2  691   7.169   4.428   8.693
   13DIO    C14  692   7.041   4.407   8.505
   13DIO    C15  693   6.975   4.503   8.414
   13DIO     F5  694   7.037   4.617   8.379
   13DIO    C16  695   6.844   4.478   8.356
   13DIO    C17  696   6.768   4.359   8.392
   13DIO    C18  697   6.837   4.255   8.468
   13DIO    C19  698   6.968   4.279   8.524
   13DIO     F6  699   7.031   4.174   8.581
   13DIO    C20  700   6.627   4.338   8.341
   13DIO     O3  701   6.558   4.459   8.311
   13DIO    C21  702   6.514   4.528   8.428
   13DIO    C22  703   6.425   4.439   8.514
   13DIO    C23  704   6.506   4.312   8.545
   13DIO     O4  705   6.550   4.250   8.424
   13DIO    C24  706   6.292   4.400   8.445
   13DIO    C25  707   6.202   4.517   8.405
   13DIO    C26  708   6.163   4.608   8.521
   13DIO     H1  709   7.884   4.313   8.466
   13DIO     H2  710   7.842   4.718   8.640
   13DIO     H3  711   7.666   4.698   8.419
   13DIO     H4  712   7.414   4.681   8.395
   13DIO     H5  713   7.415   4.303   8.615
   13DIO     H6  714   6.806   4.549   8.283
   13DIO     H7  715   6.794   4.156   8.478
   13DIO     H8  716   6.637   4.285   8.245
   13DIO     H9  717   6.601   4.562   8.485
   13DIO    H10  718   6.461   4.618   8.396
   13DIO    H11  719   6.403   4.490   8.608
   13DIO    H12  720   6.445   4.240   8.599
   13DIO    H13  721   6.592   4.336   8.608
   13DIO    H14  722   6.312   4.341   8.354
   13DIO    H15  723   6.236   4.335   8.512
   13DIO    H16  724   6.249   4.577   8.326
   13DIO    H17  725   6.110   4.476   8.361
   13DIO    H18  726   6.119   4.550   8.603
   13DIO    H19  727   6.250   4.662   8.560
   13DIO    H20  728   6.090   4.682   8.489
   14DIO     F1  729   2.135   2.805   4.097
   14DIO     C1  730   2.057   2.756   4.196
   14DIO     C2  731   1.913   2.771   4.186
   14DIO     C3  732   1.824   2.720   4.294
   14DIO     C4  733   1.890   2.653   4.408
   14DIO     C5  734   2.034   2.640   4.415
   14DIO     F2  735   2.089   2.575   4.519
   14DIO     C6  736   2.118   2.691   4.309
   14DIO     F3  737   2.251   2.679   4.317
   14DIO     C7  738   1.678   2.735   4.287
   14DIO     C8  739   1.601   2.791   4.400
   14DIO     C9  740   1.456   2.804   4.393
   14DIO    C10  741   1.383   2.754   4.278
   14DIO    C11  742   1.456   2.705   4.162
   14DIO    C12  743   1.600   2.694   4.168
   14DIO     F4  744   1.665   2.643   4.061
   14DIO     O1  745   1.251   2.791   4.268
   14DIO    C13  746   1.157   2.706   4.212
   14DIO     O2  747   1.156   2.582   4.191
   14DIO    C14  748   1.027   2.771   4.189
   14DIO    C15  749   0.961   2.852   4.294
   14DIO     F5  750   1.024   2.875   4.411
   14DIO    C16  751   0.830   2.912   4.276
   14DIO    C17  752   0.755   2.889   4.153
   14DIO    C18  753   0.823   2.824   4.042
   14DIO    C19  754   0.955   2.765   4.060
   14DIO     F6  755   1.017   2.720   3.950
   14DIO    C20  756   0.614   2.941   4.137
   14DIO     O3  757   0.544   2.959   4.261
   14DIO    C21  758   0.500   2.836   4.317
   14DIO    C22  759   0.412   2.759   4.220
   14DIO    C23  760   0.492   2.741   4.091
   14DIO     O4  761   0.537   2.867   4.041
   14DIO    C24  762   0.279   2.832   4.189
   14DIO    C25  763   0.188   2.859   4.309
   14DIO    C26  764   0.150   2.735   4.387
   14DIO     H1  765   1.870   2.819   4.099
   14DIO     H2  766   1.829   2.606   4.485
   14DIO     H3  767   1.652   2.827   4.488
   14DIO     H4  768   1.401   2.853   4.473
   14DIO     H5  769   1.401   2.673   4.075
   14DIO     H6  770   0.792   2.978   4.353
   14DIO     H7  771   0.780   2.823   3.943
   14DIO     H8  772   0.624   3.042   4.095
   14DIO     H9  773   0.587   2.775   4.346
   14DIO    H10  774   0.448   2.858   4.410
   14DIO    H11  775   0.389   2.660   4.261
   14DIO    H12  776   0.431   2.694   4.013
   14DIO    H13  777   0.578   2.676   4.108
   14DIO    H14  778   0.299   2.928   4.139
   14DIO    H15  779   0.222   2.771   4.117
   14DIO    H16  780   0.235   2.931   4.377
   14DIO    H17  781   0.096   2.907   4.273
   14DIO    H18  782   0.106   2.659   4.322
   14DIO    H19  783   0.236   2.691   4.438
   14DIO    H20  784   0.076   2.760   4.464
   15DIO     F1  785   9.955   4.998   2.944
   15DIO     C1  786   9.877   5.106   2.920
   15DIO     C2  787   9.733   5.090   2.915
   15DIO     C3  788   9.644   5.205   2.887
   15DIO     C4  789   9.710   5.336   2.868
   15DIO     C5  790   9.854   5.350   2.873
   15DIO     F2  791   9.910   5.472   2.859
   15DIO     C6  792   9.938   5.235   2.900
   15DIO     F3  793  10.072   5.249   2.904
   15DIO     C7  794   9.498   5.190   2.880
   15DIO     C8  795   9.421   5.243   2.766
   15DIO     C9  796   9.276   5.230   2.759
   15DIO    C10  797   9.204   5.172   2.871
   15DIO    C11  798   9.276   5.112   2.981
   15DIO    C12  799   9.420   5.123   2.986
   15DIO     F4  800   9.485   5.072   3.093
   15DIO     O1  801   9.071   5.140   2.848
   15DIO    C13  802   8.977   5.151   2.949
   15DIO     O2  803   8.976   5.212   3.059
   15DIO    C14  804   8.848   5.091   2.913
   15DIO    C15  805   8.781   5.122   2.784
   15DIO     F5  806   8.844   5.199   2.692
   15DIO    C16  807   8.651   5.070   2.749
   15DIO    C17  808   8.575   4.990   2.844
   15DIO    C18  809   8.644   4.944   2.964
   15DIO    C19  810   8.775   4.995   2.998
   15DIO     F6  811   8.838   4.937   3.103
   15DIO    C20  812   8.434   4.944   2.813
   15DIO     O3  813   8.364   5.030   2.722
   15DIO    C21  814   8.321   5.151   2.782
   15DIO    C22  815   8.232   5.123   2.903
   15DIO    C23  816   8.313   5.034   2.997
   15DIO     O4  817   8.357   4.916   2.931
   15DIO    C24  818   8.099   5.053   2.866
   15DIO    C25  819   8.008   5.130   2.769
   15DIO    C26  820   7.970   5.269   2.817
   15DIO     H1  821   9.691   4.991   2.932
   15DIO     H2  822   9.649   5.426   2.857
   15DIO     H3  823   9.472   5.289   2.682
   15DIO     H4  824   9.221   5.261   2.672
   15DIO     H5  825   9.222   5.064   3.062
   15DIO     H6  826   8.613   5.090   2.649
   15DIO     H7  827   8.601   4.867   3.027
   15DIO     H8  828   8.444   4.848   2.761
   15DIO     H9  829   8.407   5.211   2.812
   15DIO    H10  830   8.268   5.209   2.706
   15DIO    H11  831   8.209   5.217   2.954
   15DIO    H12  832   8.252   5.003   3.083
   15DIO    H13  833   8.399   5.088   3.038
   15DIO    H14  834   8.119   4.954   2.822
   15DIO    H15  835   8.043   5.035   2.958
   15DIO    H16  836   8.056   5.137   2.670
   15DIO    H17  837   7.917   5.071   2.754
   15DIO    H18  838   7.926   5.265   2.917
   15DIO    H19  839   8.057   5.336   2.820
   15DIO    H20  840   7.896   5.313   2.749
   16DIO     F1  841   2.303   0.943   6.685
   16DIO     C1  842   2.226   0.897   6.585
   16DIO     C2  843   2.082   0.896   6.602
   16DIO     C3  844   1.993   0.843   6.495
   16DIO     C4  845   2.058   0.796   6.371
   16DIO     C5  846   2.203   0.799   6.357
   16DIO     F2  847   2.258   0.758   6.241
   16DIO     C6  848   2.286   0.850   6.463
   16DIO     F3  849   2.420   0.851   6.449
   16DIO     C7  850   1.846   0.840   6.511
   16DIO     C8  851   1.769   0.717   6.484
   16DIO     C9  852   1.625   0.713   6.499
   16DIO    C10  853   1.552   0.834   6.531
   16DIO    C11  854   1.625   0.955   6.566
   16DIO    C12  855   1.769   0.958   6.553
   16DIO     F4  856   1.834   1.073   6.581
   16DIO     O1  857   1.420   0.819   6.567
   16DIO    C13  858   1.325   0.916   6.535
   16DIO     O2  859   1.324   1.010   6.451
   16DIO    C14  860   1.196   0.893   6.600
   16DIO    C15  861   1.130   0.761   6.598
   16DIO     F5  862   1.193   0.655   6.543
   16DIO    C16  863   0.999   0.737   6.656
   16DIO    C17  864   0.923   0.848   6.715
   16DIO    C18  865   0.992   0.975   6.733
   16DIO    C19  866   1.124   0.997   6.676
   16DIO     F6  867   1.186   1.112   6.710
   16DIO    C20  868   0.783   0.828   6.766
   16DIO     O3  869   0.713   0.720   6.702
   16DIO    C21  870   0.669   0.753   6.571
   16DIO    C22  871   0.580   0.877   6.572
   16DIO    C23  872   0.661   0.988   6.638
   16DIO     O4  873   0.705   0.948   6.768
   16DIO    C24  874   0.448   0.855   6.648
   16DIO    C25  875   0.357   0.744   6.594
   16DIO    C26  876   0.318   0.761   6.448
   16DIO     H1  877   2.039   0.933   6.694
   16DIO     H2  878   1.998   0.766   6.286
   16DIO     H3  879   1.821   0.625   6.457
   16DIO     H4  880   1.570   0.621   6.487
   16DIO     H5  881   1.570   1.044   6.595
   16DIO     H6  882   0.961   0.636   6.659
   16DIO     H7  883   0.949   1.053   6.795
   16DIO     H8  884   0.792   0.798   6.871
   16DIO     H9  885   0.756   0.768   6.506
   16DIO    H10  886   0.616   0.666   6.530
   16DIO    H11  887   0.558   0.906   6.469
   16DIO    H12  888   0.600   1.078   6.650
   16DIO    H13  889   0.747   1.016   6.577
   16DIO    H14  890   0.467   0.834   6.754
   16DIO    H15  891   0.391   0.949   6.646
   16DIO    H16  892   0.404   0.646   6.608
   16DIO    H17  893   0.265   0.742   6.654
   16DIO    H18  894   0.275   0.860   6.430
   16DIO    H19  895   0.405   0.749   6.382
   16DIO    H20  896   0.245   0.686   6.419
   17DIO     F1  897   4.628   3.010   0.543
   17DIO     C1  898   4.550   2.933   0.622
   17DIO     C2  899   4.406   2.950   0.618
   17DIO     C3  900   4.317   2.869   0.704
   17DIO     C4  901   4.383   2.771   0.794
   17DIO     C5  902   4.527   2.756   0.796
   17DIO     F2  903   4.582   2.663   0.876
   17DIO     C6  904   4.611   2.837   0.711
   17DIO     F3  905   4.744   2.823   0.715
   17DIO     C7  906   4.171   2.885   0.702
   17DIO     C8  907   4.094   2.904   0.827
   17DIO     C9  908   3.949   2.919   0.825
   17DIO    C10  909   3.876   2.906   0.700
   17DIO    C11  910   3.949   2.895   0.575
   17DIO    C12  911   4.093   2.882   0.577
   17DIO     F4  912   4.158   2.866   0.460
   17DIO     O1  913   3.744   2.945   0.702
   17DIO    C13  914   3.650   2.880   0.623
   17DIO     O2  915   3.649   2.768   0.565
   17DIO    C14  916   3.521   2.950   0.621
   17DIO    C15  917   3.454   2.995   0.745
   17DIO     F5  918   3.517   2.982   0.864
   17DIO    C16  919   3.323   3.058   0.745
   17DIO    C17  920   3.248   3.072   0.622
   17DIO    C18  921   3.316   3.044   0.496
   17DIO    C19  922   3.448   2.983   0.496
   17DIO     F6  923   3.511   2.973   0.376
   17DIO    C20  924   3.107   3.127   0.622
   17DIO     O3  925   3.037   3.107   0.745
   17DIO    C21  926   2.994   2.972   0.762
   17DIO    C22  927   2.905   2.929   0.646
   17DIO    C23  928   2.985   2.951   0.518
   17DIO     O4  929   3.030   3.086   0.509
   17DIO    C24  930   2.772   3.007   0.638
   17DIO    C25  931   2.681   2.997   0.762
   17DIO    C26  932   2.643   2.855   0.798
   17DIO     H1  933   4.363   3.022   0.549
   17DIO     H2  934   4.322   2.702   0.852
   17DIO     H3  935   4.145   2.912   0.922
   17DIO     H4  936   3.894   2.942   0.915
   17DIO     H5  937   3.894   2.890   0.481
   17DIO     H6  938   3.285   3.097   0.839
   17DIO     H7  939   3.274   3.074   0.401
   17DIO     H8  940   3.117   3.236   0.612
   17DIO     H9  941   3.080   2.906   0.771
   17DIO    H10  942   2.941   2.966   0.857
   17DIO    H11  943   2.882   2.822   0.655
   17DIO    H12  944   2.924   2.930   0.430
   17DIO    H13  945   3.072   2.883   0.514
   17DIO    H14  946   2.792   3.114   0.620
   17DIO    H15  947   2.715   2.972   0.551
   17DIO    H16  948   2.729   3.046   0.848
   17DIO    H17  949   2.589   3.054   0.741
   17DIO    H18  950   2.599   2.802   0.713
   17DIO    H19  951   2.729   2.798   0.833
   17DIO    H20  952   2.569   2.855   0.879
   18DIO     F1  953   3.957   7.805   1.302
   18DIO     C1  954   3.879   7.754   1.400
   18DIO     C2  955   3.735   7.768   1.391
   18DIO     C3  956   3.646   7.716   1.497
   18DIO     C4  957   3.712   7.647   1.611
   18DIO     C5  958   3.856   7.634   1.617
   18DIO     F2  959   3.911   7.566   1.720
   18DIO     C6  960   3.940   7.687   1.512
   18DIO     F3  961   4.073   7.675   1.520
   18DIO     C7  962   3.500   7.731   1.490
   18DIO     C8  963   3.423   7.784   1.605
   18DIO     C9  964   3.278   7.798   1.598
   18DIO    C10  965   3.205   7.750   1.483
   18DIO    C11  966   3.278   7.703   1.365
   18DIO    C12  967   3.422   7.692   1.371
   18DIO     F4  968   3.487   7.644   1.263
   18DIO     O1  969   3.073   7.788   1.473
   18DIO    C13  970   2.979   7.703   1.416
   18DIO     O2  971   2.978   7.579   1.392
   18DIO    C14  972   2.850   7.769   1.394
   18DIO    C15  973   2.783   7.848   1.500
   18DIO     F5  974   2.846   7.869   1.618
   18DIO    C16  975   2.652   7.908   1.483
   18DIO    C17  976   2.577   7.887   1.360
   18DIO    C18  977   2.645   7.824   1.248
   18DIO    C19  978   2.777   7.765   1.265
   18DIO     F6  979   2.840   7.722   1.153
   18DIO    C20  980   2.436   7.940   1.345
   18DIO     O3  981   2.366   7.955   1.469
   18DIO    C21  982   2.323   7.831   1.523
   18DIO    C22  983   2.234   7.756   1.424
   18DIO    C23  984   2.314   7.741   1.295
   18DIO     O4  985   2.359   7.868   1.248
   18DIO    C24  986   2.101   7.830   1.395
   18DIO    C25  987   2.010   7.855   1.516
   18DIO    C26  988   1.972   7.728   1.591
   18DIO     H1  989   3.692   7.819   1.305
   18DIO     H2  990   3.651   7.598   1.686
   18DIO     H3  991   3.474   7.819   1.693
   18DIO     H4  992   3.223   7.845   1.679
   18DIO     H5  993   3.223   7.673   1.277
   18DIO     H6  994   2.614   7.972   1.562
   18DIO     H7  995   2.603   7.826   1.148
   18DIO     H8  996   2.446   8.041   1.305
   18DIO     H9  997   2.409   7.770   1.550
   18DIO    H10  998   2.270   7.852   1.616
   18DIO    H11  999   2.211   7.657   1.463
   18DIO    H12 1000   2.253   7.696   1.217
   18DIO    H13 1001   2.401   7.675   1.311
   18DIO    H14 1002   2.121   7.926   1.347
   18DIO    H15 1003   2.044   7.771   1.321
   18DIO    H16 1004   2.058   7.926   1.585
   18DIO    H17 1005   1.918   7.904   1.480
   18DIO    H18 1006   1.928   7.654   1.524
   18DIO    H19 1007   2.058   7.684   1.641
   18DIO    H20 1008   1.898   7.752   1.668
   19DIO     F1 1009   5.715   5.113   5.679
   19DIO     C1 1010   5.638   5.132   5.787
   19DIO     C2 1011   5.494   5.138   5.771
   19DIO     C3 1012   5.405   5.161   5.887
   19DIO     C4 1013   5.470   5.175   6.020
   19DIO     C5 1014   5.615   5.169   6.033
   19DIO     F2 1015   5.670   5.178   6.155
   19DIO     C6 1016   5.698   5.147   5.917
   19DIO     F3 1017   5.832   5.142   5.931
   19DIO     C7 1018   5.259   5.169   5.873
   19DIO     C8 1019   5.181   5.281   5.931
   19DIO     C9 1020   5.037   5.288   5.918
   19DIO    C10 1021   4.964   5.179   5.855
   19DIO    C11 1022   5.037   5.071   5.791
   19DIO    C12 1023   5.181   5.065   5.802
   19DIO     F4 1024   5.246   4.961   5.746
   19DIO     O1 1025   4.832   5.203   5.825
   19DIO    C13 1026   4.737   5.101   5.831
   19DIO     O2 1027   4.737   4.989   5.887
   19DIO    C14 1028   4.608   5.140   5.773
   19DIO    C15 1029   4.542   5.268   5.810
   19DIO     F5 1030   4.605   5.356   5.890
   19DIO    C16 1031   4.411   5.305   5.759
   19DIO    C17 1032   4.335   5.213   5.675
   19DIO    C18 1033   4.404   5.095   5.624
   19DIO    C19 1034   4.536   5.059   5.673
   19DIO     F6 1035   4.598   4.957   5.611
   19DIO    C20 1036   4.195   5.246   5.630
   19DIO     O3 1037   4.125   5.334   5.719
   19DIO    C21 1038   4.081   5.268   5.838
   19DIO    C22 1039   3.992   5.149   5.805
   19DIO    C23 1040   4.073   5.058   5.712
   19DIO     O4 1041   4.117   5.130   5.597
   19DIO    C24 1042   3.860   5.189   5.737
   19DIO    C25 1043   3.769   5.282   5.818
   19DIO    C26 1044   3.731   5.228   5.954
   19DIO     H1 1045   5.451   5.125   5.672
   19DIO     H2 1046   5.410   5.182   6.109
   19DIO     H3 1047   5.233   5.362   5.980
   19DIO     H4 1048   4.982   5.374   5.953
   19DIO     H5 1049   4.982   4.993   5.740
   19DIO     H6 1050   4.373   5.404   5.782
   19DIO     H7 1051   4.361   5.036   5.544
   19DIO     H8 1052   4.204   5.302   5.537
   19DIO     H9 1053   4.168   5.236   5.897
   19DIO    H10 1054   4.029   5.342   5.899
   19DIO    H11 1055   3.970   5.094   5.897
   19DIO    H12 1056   4.012   4.974   5.677
   19DIO    H13 1057   4.159   5.015   5.765
   19DIO    H14 1058   3.880   5.236   5.640
   19DIO    H15 1059   3.803   5.097   5.715
   19DIO    H16 1060   3.816   5.381   5.829
   19DIO    H17 1061   3.677   5.300   5.760
   19DIO    H18 1062   3.687   5.128   5.946
   19DIO    H19 1063   3.817   5.223   6.021
   19DIO    H20 1064   3.657   5.294   6.001
   20DIO     F1 1065   4.015   2.837   5.462
   20DIO     C1 1066   3.937   2.734   5.423
   20DIO     C2 1067   3.793   2.744   5.436
   20DIO     C3 1068   3.704   2.633   5.396
   20DIO     C4 1069   3.770   2.512   5.341
   20DIO     C5 1070   3.914   2.504   5.329
   20DIO     F2 1071   3.970   2.394   5.274
   20DIO     C6 1072   3.998   2.615   5.369
   20DIO     F3 1073   4.132   2.605   5.358
   20DIO     C7 1074   3.558   2.641   5.410
   20DIO     C8 1075   3.481   2.534   5.477
   20DIO     C9 1076   3.336   2.542   5.490
   20DIO    C10 1077   3.264   2.651   5.428
   20DIO    C11 1078   3.336   2.762   5.369
   20DIO    C12 1079   3.480   2.755   5.358
   20DIO     F4 1080   3.545   2.857   5.297
   20DIO     O1 1081   3.131   2.665   5.465
   20DIO    C13 1082   3.037   2.712   5.374
   20DIO     O2 1083   3.036   2.721   5.249
   20DIO    C14 1084   2.908   2.742   5.437
   20DIO    C15 1085   2.842   2.645   5.528
   20DIO     F5 1086   2.904   2.531   5.562
   20DIO    C16 1087   2.711   2.670   5.586
   20DIO    C17 1088   2.635   2.789   5.550
   20DIO    C18 1089   2.704   2.893   5.475
   20DIO    C19 1090   2.835   2.869   5.419
   20DIO     F6 1091   2.898   2.975   5.363
   20DIO    C20 1092   2.494   2.810   5.601
   20DIO     O3 1093   2.425   2.689   5.631
   20DIO    C21 1094   2.381   2.621   5.514
   20DIO    C22 1095   2.292   2.710   5.428
   20DIO    C23 1096   2.373   2.836   5.398
   20DIO     O4 1097   2.417   2.898   5.518
   20DIO    C24 1098   2.159   2.748   5.497
   20DIO    C25 1099   2.069   2.631   5.536
   20DIO    C26 1100   2.030   2.541   5.420
   20DIO     H1 1101   3.751   2.836   5.476
   20DIO     H2 1102   3.709   2.432   5.301
   20DIO     H3 1103   3.532   2.450   5.522
   20DIO     H4 1104   3.281   2.468   5.546
   20DIO     H5 1105   3.282   2.846   5.328
   20DIO     H6 1106   2.673   2.599   5.659
   20DIO     H7 1107   2.661   2.992   5.465
   20DIO     H8 1108   2.504   2.862   5.697
   20DIO     H9 1109   2.468   2.586   5.456
   20DIO    H10 1110   2.328   2.530   5.545
   20DIO    H11 1111   2.269   2.660   5.334
   20DIO    H12 1112   2.312   2.909   5.344
   20DIO    H13 1113   2.459   2.813   5.334
   20DIO    H14 1114   2.179   2.807   5.588
   20DIO    H15 1115   2.103   2.814   5.430
   20DIO    H16 1116   2.116   2.570   5.615
   20DIO    H17 1117   1.977   2.672   5.581
   20DIO    H18 1118   1.986   2.599   5.338
   20DIO    H19 1119   2.117   2.487   5.381
   20DIO    H20 1120   1.956   2.467   5.452
   21DIO     F1 1121   9.955   8.937   5.786
   21DIO     C1 1122   9.877   8.852   5.856
   21DIO     C2 1123   9.733   8.869   5.854
   21DIO     C3 1124   9.644   8.779   5.931
   21DIO     C4 1125   9.710   8.671   6.008
   21DIO     C5 1126   9.854   8.656   6.009
   21DIO     F2 1127   9.910   8.554   6.077
   21DIO     C6 1128   9.938   8.746   5.933
   21DIO     F3 1129  10.072   8.732   5.935
   21DIO     C7 1130   9.498   8.795   5.930
   21DIO     C8 1131   9.421   8.800   6.056
   21DIO     C9 1132   9.276   8.815   6.056
   21DIO    C10 1133   9.204   8.816   5.930
   21DIO    C11 1134   9.276   8.819   5.805
   21DIO    C12 1135   9.420   8.806   5.805
   21DIO     F4 1136   9.485   8.804   5.687
   21DIO     O1 1137   9.071   8.854   5.937
   21DIO    C13 1138   8.977   8.799   5.851
   21DIO     O2 1139   8.976   8.694   5.781
   21DIO    C14 1140   8.848   8.868   5.857
   21DIO    C15 1141   8.781   8.899   5.985
   21DIO     F5 1142   8.844   8.872   6.102
   21DIO    C16 1143   8.651   8.961   5.993
   21DIO    C17 1144   8.575   8.990   5.872
   21DIO    C18 1145   8.644   8.977   5.744
   21DIO    C19 1146   8.775   8.915   5.736
   21DIO     F6 1147   8.838   8.919   5.617
   21DIO    C20 1148   8.434   9.045   5.878
   21DIO     O3 1149   8.364   9.010   5.998
   21DIO    C21 1150   8.321   8.875   6.000
   21DIO    C22 1151   8.232   8.845   5.879
   21DIO    C23 1152   8.313   8.881   5.755
   21DIO     O4 1153   8.357   9.016   5.761
   21DIO    C24 1154   8.099   8.924   5.881
   21DIO    C25 1155   8.008   8.899   6.002
   21DIO    C26 1156   7.970   8.754   6.022
   21DIO     H1 1157   9.691   8.949   5.794
   21DIO     H2 1158   9.649   8.596   6.058
   21DIO     H3 1159   9.472   8.797   6.151
   21DIO     H4 1160   9.221   8.827   6.148
   21DIO     H5 1161   9.222   8.825   5.711
   21DIO     H6 1162   8.613   8.989   6.090
   21DIO     H7 1163   8.601   9.017   5.653
   21DIO     H8 1164   8.444   9.154   5.881
   21DIO     H9 1165   8.407   8.808   6.001
   21DIO    H10 1166   8.268   8.857   6.094
   21DIO    H11 1167   8.209   8.738   5.876
   21DIO    H12 1168   8.252   8.870   5.665
   21DIO    H13 1169   8.399   8.814   5.743
   21DIO    H14 1170   8.119   9.031   5.875
   21DIO    H15 1171   8.043   8.898   5.790
   21DIO    H16 1172   8.056   8.937   6.093
   21DIO    H17 1173   7.917   8.958   5.989
   21DIO    H18 1174   7.926   8.712   5.931
   21DIO    H19 1175   8.057   8.693   6.050
   21DIO    H20 1176   7.896   8.745   6.102
   22DIO     F1 1177   4.320   9.210   0.245
   22DIO     C1 1178   4.242   9.182   0.352
   22DIO     C2 1179   4.098   9.194   0.340
   22DIO     C3 1180   4.009   9.167   0.455
   22DIO     C4 1181   4.075   9.124   0.581
   22DIO     C5 1182   4.219   9.113   0.590
   22DIO     F2 1183   4.274   9.071   0.705
   22DIO     C6 1184   4.303   9.141   0.476
   22DIO     F3 1185   4.436   9.132   0.486
   22DIO     C7 1186   3.863   9.179   0.445
   22DIO     C8 1187   3.786   9.257   0.544
   22DIO     C9 1188   3.641   9.269   0.535
   22DIO    C10 1189   3.568   9.196   0.433
   22DIO    C11 1190   3.641   9.125   0.329
   22DIO    C12 1191   3.785   9.115   0.337
   22DIO     F4 1192   3.850   9.044   0.243
   22DIO     O1 1193   3.436   9.231   0.415
   22DIO    C13 1194   3.342   9.136   0.378
   22DIO     O2 1195   3.341   9.010   0.383
   22DIO    C14 1196   3.212   9.196   0.342
   22DIO    C15 1197   3.146   9.296   0.428
   22DIO     F5 1198   3.209   9.343   0.538
   22DIO    C16 1199   3.015   9.351   0.398
   22DIO    C17 1200   2.940   9.303   0.283
   22DIO    C18 1201   3.008   9.217   0.187
   22DIO    C19 1202   3.140   9.163   0.217
   22DIO     F6 1203   3.202   9.096   0.118
   22DIO    C20 1204   2.799   9.351   0.256
   22DIO     O3 1205   2.729   9.394   0.374
   22DIO    C21 1206   2.685   9.285   0.454
   22DIO    C22 1207   2.597   9.190   0.375
   22DIO    C23 1208   2.677   9.146   0.252
   22DIO     O4 1209   2.722   9.259   0.178
   22DIO    C24 1210   2.464   9.255   0.330
   22DIO    C25 1211   2.373   9.306   0.442
   22DIO    C26 1212   2.335   9.200   0.544
   22DIO     H1 1213   4.055   9.224   0.244
   22DIO     H2 1214   4.014   9.094   0.665
   22DIO     H3 1215   3.837   9.311   0.623
   22DIO     H4 1216   3.586   9.333   0.603
   22DIO     H5 1217   3.586   9.075   0.250
   22DIO     H6 1218   2.977   9.431   0.460
   22DIO     H7 1219   2.965   9.196   0.090
   22DIO     H8 1220   2.809   9.441   0.194
   22DIO     H9 1221   2.772   9.231   0.495
   22DIO    H10 1222   2.633   9.326   0.541
   22DIO    H11 1223   2.574   9.101   0.435
   22DIO    H12 1224   2.616   9.084   0.186
   22DIO    H13 1225   2.763   9.085   0.282
   22DIO    H14 1226   2.484   9.338   0.261
   22DIO    H15 1227   2.407   9.181   0.271
   22DIO    H16 1228   2.420   9.391   0.493
   22DIO    H17 1229   2.281   9.346   0.396
   22DIO    H18 1230   2.291   9.112   0.495
   22DIO    H19 1231   2.421   9.167   0.602
   22DIO    H20 1232   2.261   9.240   0.614
   23DIO     F1 1233   8.982   4.342   4.310
   23DIO     C1 1234   8.904   4.238   4.348
   23DIO     C2 1235   8.760   4.255   4.351
   23DIO     C3 1236   8.672   4.145   4.395
   23DIO     C4 1237   8.737   4.018   4.433
   23DIO     C5 1238   8.881   4.003   4.429
   23DIO     F2 1239   8.937   3.885   4.460
   23DIO     C6 1240   8.965   4.113   4.387
   23DIO     F3 1241   9.099   4.099   4.384
   23DIO     C7 1242   8.525   4.160   4.400
   23DIO     C8 1243   8.448   4.124   4.521
   23DIO     C9 1244   8.303   4.138   4.525
   23DIO    C10 1245   8.231   4.180   4.407
   23DIO    C11 1246   8.303   4.224   4.289
   23DIO    C12 1247   8.447   4.212   4.285
   23DIO     F4 1248   8.512   4.248   4.173
   23DIO     O1 1249   8.099   4.214   4.425
   23DIO    C13 1250   8.004   4.190   4.326
   23DIO     O2 1251   8.003   4.114   4.226
   23DIO    C14 1252   7.875   4.254   4.354
   23DIO    C15 1253   7.809   4.241   4.486
   23DIO     F5 1254   7.871   4.178   4.587
   23DIO    C16 1255   7.678   4.297   4.513
   23DIO    C17 1256   7.602   4.364   4.408
   23DIO    C18 1257   7.671   4.393   4.283
   23DIO    C19 1258   7.802   4.337   4.256
   23DIO     F6 1259   7.865   4.380   4.144
   23DIO    C20 1260   7.461   4.413   4.432
   23DIO     O3 1261   7.392   4.341   4.534
   23DIO    C21 1262   7.348   4.213   4.491
   23DIO    C22 1263   7.259   4.224   4.368
   23DIO    C23 1264   7.340   4.299   4.262
   23DIO     O4 1265   7.384   4.425   4.312
   23DIO    C24 1266   7.126   4.298   4.395
   23DIO    C25 1267   7.036   4.236   4.502
   23DIO    C26 1268   6.997   4.091   4.473
   23DIO     H1 1269   8.718   4.350   4.321
   23DIO     H2 1270   8.676   3.931   4.456
   23DIO     H3 1271   8.500   4.090   4.610
   23DIO     H4 1272   8.248   4.119   4.616
   23DIO     H5 1273   8.249   4.260   4.203
   23DIO     H6 1274   7.640   4.292   4.615
   23DIO     H7 1275   7.628   4.460   4.210
   23DIO     H8 1276   7.471   4.516   4.470
   23DIO     H9 1277   7.435   4.149   4.471
   23DIO    H10 1278   7.295   4.166   4.575
   23DIO    H11 1279   7.237   4.124   4.330
   23DIO    H12 1280   7.279   4.318   4.173
   23DIO    H13 1281   7.426   4.239   4.229
   23DIO    H14 1282   7.146   4.402   4.424
   23DIO    H15 1283   7.070   4.303   4.301
   23DIO    H16 1284   7.083   4.242   4.600
   23DIO    H17 1285   6.944   4.296   4.508
   23DIO    H18 1286   6.953   4.081   4.373
   23DIO    H19 1287   7.084   4.025   4.480
   23DIO    H20 1288   6.924   4.057   4.546
   24DIO     F1 1289   4.432   6.714   3.463
   24DIO     C1 1290   4.355   6.790   3.383
   24DIO     C2 1291   4.210   6.773   3.388
   24DIO     C3 1292   4.122   6.854   3.301
   24DIO     C4 1293   4.187   6.952   3.211
   24DIO     C5 1294   4.331   6.966   3.209
   24DIO     F2 1295   4.387   7.060   3.129
   24DIO     C6 1296   4.415   6.886   3.295
   24DIO     F3 1297   4.549   6.900   3.290
   24DIO     C7 1298   3.975   6.838   3.303
   24DIO     C8 1299   3.898   6.818   3.178
   24DIO     C9 1300   3.753   6.803   3.181
   24DIO    C10 1301   3.681   6.817   3.305
   24DIO    C11 1302   3.753   6.829   3.431
   24DIO    C12 1303   3.897   6.841   3.429
   24DIO     F4 1304   3.962   6.857   3.546
   24DIO     O1 1305   3.549   6.778   3.304
   24DIO    C13 1306   3.454   6.843   3.383
   24DIO     O2 1307   3.453   6.955   3.440
   24DIO    C14 1308   3.325   6.774   3.385
   24DIO    C15 1309   3.259   6.728   3.261
   24DIO     F5 1310   3.321   6.741   3.142
   24DIO    C16 1311   3.128   6.665   3.261
   24DIO    C17 1312   3.052   6.651   3.384
   24DIO    C18 1313   3.121   6.680   3.510
   24DIO    C19 1314   3.253   6.741   3.510
   24DIO     F6 1315   3.315   6.751   3.629
   24DIO    C20 1316   2.911   6.596   3.384
   24DIO     O3 1317   2.842   6.616   3.261
   24DIO    C21 1318   2.798   6.750   3.244
   24DIO    C22 1319   2.709   6.794   3.360
   24DIO    C23 1320   2.790   6.773   3.488
   24DIO     O4 1321   2.834   6.638   3.497
   24DIO    C24 1322   2.576   6.716   3.367
   24DIO    C25 1323   2.486   6.726   3.244
   24DIO    C26 1324   2.447   6.868   3.207
   24DIO     H1 1325   4.168   6.701   3.457
   24DIO     H2 1326   4.127   7.020   3.153
   24DIO     H3 1327   3.950   6.810   3.084
   24DIO     H4 1328   3.698   6.780   3.090
   24DIO     H5 1329   3.699   6.834   3.524
   24DIO     H6 1330   3.090   6.626   3.167
   24DIO     H7 1331   3.078   6.651   3.605
   24DIO     H8 1332   2.921   6.487   3.395
   24DIO     H9 1333   2.885   6.817   3.234
   24DIO    H10 1334   2.745   6.757   3.148
   24DIO    H11 1335   2.687   6.901   3.350
   24DIO    H12 1336   2.729   6.794   3.576
   24DIO    H13 1337   2.876   6.841   3.491
   24DIO    H14 1338   2.596   6.609   3.386
   24DIO    H15 1339   2.520   6.752   3.454
   24DIO    H16 1340   2.533   6.677   3.158
   24DIO    H17 1341   2.394   6.669   3.265
   24DIO    H18 1342   2.403   6.920   3.292
   24DIO    H19 1343   2.534   6.925   3.172
   24DIO    H20 1344   2.374   6.867   3.126
   25DIO     F1 1345   8.435   8.591   0.273
   25DIO     C1 1346   8.357   8.491   0.227
   25DIO     C2 1347   8.213   8.501   0.241
   25DIO     C3 1348   8.124   8.393   0.192
   25DIO     C4 1349   8.190   8.276   0.128
   25DIO     C5 1350   8.334   8.269   0.115
   25DIO     F2 1351   8.389   8.164   0.052
   25DIO     C6 1352   8.418   8.376   0.164
   25DIO     F3 1353   8.551   8.368   0.152
   25DIO     C7 1354   7.978   8.400   0.207
   25DIO     C8 1355   7.901   8.288   0.265
   25DIO     C9 1356   7.756   8.295   0.279
   25DIO    C10 1357   7.683   8.409   0.226
   25DIO    C11 1358   7.756   8.524   0.175
   25DIO    C12 1359   7.900   8.518   0.163
   25DIO     F4 1360   7.965   8.624   0.111
   25DIO     O1 1361   7.551   8.420   0.263
   25DIO    C13 1362   7.457   8.473   0.176
   25DIO     O2 1363   7.456   8.492   0.052
   25DIO    C14 1364   7.327   8.498   0.241
   25DIO    C15 1365   7.261   8.395   0.324
   25DIO     F5 1366   7.324   8.278   0.350
   25DIO    C16 1367   7.130   8.415   0.384
   25DIO    C17 1368   7.055   8.536   0.358
   25DIO    C18 1369   7.123   8.646   0.291
   25DIO    C19 1370   7.255   8.627   0.232
   25DIO     F6 1371   7.317   8.736   0.185
   25DIO    C20 1372   6.914   8.554   0.410
   25DIO     O3 1373   6.844   8.430   0.430
   25DIO    C21 1374   6.800   8.371   0.308
   25DIO    C22 1375   6.712   8.467   0.230
   25DIO    C23 1376   6.792   8.595   0.209
   25DIO     O4 1377   6.837   8.648   0.334
   25DIO    C24 1378   6.579   8.499   0.302
   25DIO    C25 1379   6.488   8.380   0.332
   25DIO    C26 1380   6.450   8.299   0.209
   25DIO     H1 1381   8.170   8.589   0.287
   25DIO     H2 1382   8.129   8.199   0.082
   25DIO     H3 1383   7.952   8.201   0.303
   25DIO     H4 1384   7.701   8.216   0.329
   25DIO     H5 1385   7.701   8.611   0.140
   25DIO     H6 1386   7.092   8.338   0.451
   25DIO     H7 1387   7.080   8.745   0.288
   25DIO     H8 1388   6.924   8.598   0.510
   25DIO     H9 1389   6.887   8.341   0.248
   25DIO    H10 1390   6.748   8.279   0.333
   25DIO    H11 1391   6.689   8.424   0.132
   25DIO    H12 1392   6.731   8.672   0.161
   25DIO    H13 1393   6.878   8.577   0.144
   25DIO    H14 1394   6.599   8.551   0.397
   25DIO    H15 1395   6.522   8.570   0.240
   25DIO    H16 1396   6.535   8.314   0.405
   25DIO    H17 1397   6.396   8.417   0.379
   25DIO    H18 1398   6.406   8.363   0.132
   25DIO    H19 1399   6.536   8.248   0.166
   25DIO    H20 1400   6.376   8.223   0.235
   26DIO     F1 1401   8.575   5.154   4.409
   26DIO     C1 1402   8.497   5.264   4.412
   26DIO     C2 1403   8.353   5.250   4.403
   26DIO     C3 1404   8.264   5.368   4.404
   26DIO     C4 1405   8.330   5.501   4.417
   26DIO     C5 1406   8.474   5.512   4.426
   26DIO     F2 1407   8.529   5.634   4.442
   26DIO     C6 1408   8.558   5.395   4.424
   26DIO     F3 1409   8.691   5.407   4.432
   26DIO     C7 1410   8.118   5.356   4.394
   26DIO     C8 1411   8.041   5.435   4.296
   26DIO     C9 1412   7.896   5.424   4.286
   26DIO    C10 1413   7.823   5.341   4.380
   26DIO    C11 1414   7.896   5.255   4.473
   26DIO    C12 1415   8.040   5.265   4.481
   26DIO     F4 1416   8.105   5.189   4.571
   26DIO     O1 1417   7.691   5.315   4.350
   26DIO    C13 1418   7.597   5.301   4.451
   26DIO     O2 1419   7.596   5.333   4.573
   26DIO    C14 1420   7.467   5.252   4.401
   26DIO    C15 1421   7.401   5.314   4.284
   26DIO     F5 1422   7.464   5.411   4.214
   26DIO    C16 1423   7.270   5.272   4.237
   26DIO    C17 1424   7.195   5.170   4.310
   26DIO    C18 1425   7.263   5.097   4.415
   26DIO    C19 1426   7.395   5.138   4.461
   26DIO     F6 1427   7.457   5.056   4.549
   26DIO    C20 1428   7.054   5.134   4.269
   26DIO     O3 1429   6.984   5.239   4.201
   26DIO    C21 1430   6.940   5.342   4.290
   26DIO    C22 1431   6.852   5.285   4.400
   26DIO    C23 1432   6.932   5.176   4.470
   26DIO     O4 1433   6.977   5.078   4.376
   26DIO    C24 1434   6.719   5.227   4.347
   26DIO    C25 1435   6.628   5.325   4.271
   26DIO    C26 1436   6.590   5.447   4.352
   26DIO     H1 1437   8.310   5.151   4.396
   26DIO     H2 1438   8.269   5.590   4.429
   26DIO     H3 1439   8.092   5.500   4.226
   26DIO     H4 1440   7.841   5.476   4.209
   26DIO     H5 1441   7.841   5.189   4.539
   26DIO     H6 1442   7.232   5.315   4.146
   26DIO     H7 1443   7.220   5.007   4.458
   26DIO     H8 1444   7.064   5.053   4.195
   26DIO     H9 1445   7.027   5.393   4.333
   26DIO    H10 1446   6.888   5.417   4.230
   26DIO    H11 1447   6.829   5.364   4.472
   26DIO    H12 1448   6.871   5.125   4.545
   26DIO    H13 1449   7.018   5.218   4.523
   26DIO    H14 1450   6.739   5.141   4.280
   26DIO    H15 1451   6.662   5.186   4.432
   26DIO    H16 1452   6.675   5.356   4.178
   26DIO    H17 1453   6.536   5.271   4.243
   26DIO    H18 1454   6.546   5.419   4.448
   26DIO    H19 1455   6.676   5.512   4.371
   26DIO    H20 1456   6.516   5.507   4.297
   27DIO     F1 1457   5.904   3.385   1.506
   27DIO     C1 1458   5.827   3.485   1.459
   27DIO     C2 1459   5.683   3.468   1.458
   27DIO     C3 1460   5.594   3.574   1.405
   27DIO     C4 1461   5.659   3.699   1.358
   27DIO     C5 1462   5.804   3.713   1.360
   27DIO     F2 1463   5.859   3.829   1.320
   27DIO     C6 1464   5.887   3.607   1.411
   27DIO     F3 1465   6.021   3.621   1.412
   27DIO     C7 1466   5.447   3.559   1.402
   27DIO     C8 1467   5.370   3.586   1.278
   27DIO     C9 1468   5.226   3.571   1.275
   27DIO    C10 1469   5.153   3.539   1.396
   27DIO    C11 1470   5.226   3.504   1.517
   27DIO    C12 1471   5.370   3.517   1.520
   27DIO     F4 1472   5.435   3.489   1.635
   27DIO     O1 1473   5.021   3.503   1.381
   27DIO    C13 1474   4.926   3.535   1.478
   27DIO     O2 1475   4.925   3.619   1.572
   27DIO    C14 1476   4.797   3.469   1.455
   27DIO    C15 1477   4.731   3.472   1.323
   27DIO     F5 1478   4.794   3.527   1.216
   27DIO    C16 1479   4.600   3.413   1.299
   27DIO    C17 1480   4.524   3.355   1.410
   27DIO    C18 1481   4.593   3.337   1.537
   27DIO    C19 1482   4.725   3.394   1.559
   27DIO     F6 1483   4.787   3.360   1.674
   27DIO    C20 1484   4.384   3.304   1.390
   27DIO     O3 1485   4.314   3.368   1.282
   27DIO    C21 1486   4.270   3.499   1.315
   27DIO    C22 1487   4.181   3.498   1.439
   27DIO    C23 1488   4.262   3.432   1.550
   27DIO     O4 1489   4.306   3.302   1.510
   27DIO    C24 1490   4.049   3.422   1.417
   27DIO    C25 1491   3.958   3.476   1.306
   27DIO    C26 1492   3.919   3.622   1.323
   27DIO     H1 1493   5.640   3.376   1.495
   27DIO     H2 1494   5.599   3.783   1.328
   27DIO     H3 1495   5.422   3.612   1.187
   27DIO     H4 1496   5.171   3.583   1.183
   27DIO     H5 1497   5.171   3.475   1.606
   27DIO     H6 1498   4.562   3.411   1.198
   27DIO     H7 1499   4.550   3.275   1.615
   27DIO     H8 1500   4.393   3.199   1.360
   27DIO     H9 1501   4.357   3.564   1.330
   27DIO    H10 1502   4.217   3.539   1.228
   27DIO    H11 1503   4.159   3.601   1.468
   27DIO    H12 1504   4.201   3.420   1.640
   27DIO    H13 1505   4.348   3.493   1.578
   27DIO    H14 1506   4.068   3.316   1.396
   27DIO    H15 1507   3.992   3.424   1.511
   27DIO    H16 1508   4.005   3.461   1.208
   27DIO    H17 1509   3.866   3.415   1.305
   27DIO    H18 1510   3.876   3.640   1.422
   27DIO    H19 1511   4.006   3.688   1.311
   27DIO    H20 1512   3.846   3.650   1.247
   28DIO     F1 1513   4.700   6.626   0.750
   28DIO     C1 1514   4.623   6.632   0.860
   28DIO     C2 1515   4.479   6.639   0.845
   28DIO     C3 1516   4.390   6.648   0.963
   28DIO     C4 1517   4.455   6.646   1.096
   28DIO     C5 1518   4.600   6.638   1.108
   28DIO     F2 1519   4.655   6.632   1.231
   28DIO     C6 1520   4.683   6.630   0.991
   28DIO     F3 1521   4.817   6.624   1.004
   28DIO     C7 1522   4.244   6.657   0.950
   28DIO     C8 1523   4.166   6.762   1.021
   28DIO     C9 1524   4.022   6.770   1.008
   28DIO    C10 1525   3.949   6.670   0.933
   28DIO    C11 1526   4.022   6.570   0.856
   28DIO    C12 1527   4.166   6.563   0.866
   28DIO     F4 1528   4.231   6.467   0.798
   28DIO     O1 1529   3.817   6.698   0.906
   28DIO    C13 1530   3.722   6.596   0.899
   28DIO     O2 1531   3.722   6.477   0.942
   28DIO    C14 1532   3.593   6.641   0.847
   28DIO    C15 1533   3.527   6.763   0.898
   28DIO     F5 1534   3.590   6.841   0.989
   28DIO    C16 1535   3.396   6.807   0.853
   28DIO    C17 1536   3.320   6.726   0.758
   28DIO    C18 1537   3.389   6.615   0.693
   28DIO    C19 1538   3.521   6.573   0.738
   28DIO     F6 1539   3.583   6.479   0.664
   28DIO    C20 1540   3.180   6.763   0.718
   28DIO     O3 1541   3.110   6.840   0.817
   28DIO    C21 1542   3.066   6.760   0.927
   28DIO    C22 1543   2.977   6.646   0.879
   28DIO    C23 1544   3.058   6.567   0.776
   28DIO     O4 1545   3.102   6.652   0.671
   28DIO    C24 1546   2.845   6.694   0.817
   28DIO    C25 1547   2.754   6.777   0.908
   28DIO    C26 1548   2.716   6.707   1.037
   28DIO     H1 1549   4.436   6.639   0.745
   28DIO     H2 1550   4.395   6.642   1.186
   28DIO     H3 1551   4.218   6.837   1.079
   28DIO     H4 1552   3.967   6.852   1.054
   28DIO     H5 1553   3.967   6.499   0.796
   28DIO     H6 1554   3.358   6.902   0.888
   28DIO     H7 1555   3.346   6.565   0.607
   28DIO     H8 1556   3.189   6.830   0.632
   28DIO     H9 1557   3.153   6.722   0.981
   28DIO    H10 1558   3.014   6.826   0.996
   28DIO    H11 1559   2.955   6.580   0.964
   28DIO    H12 1560   2.997   6.488   0.732
   28DIO    H13 1561   3.144   6.518   0.823
   28DIO    H14 1562   2.865   6.753   0.726
   28DIO    H15 1563   2.788   6.606   0.784
   28DIO    H16 1564   2.801   6.873   0.932
   28DIO    H17 1565   2.662   6.801   0.853
   28DIO    H18 1566   2.672   6.609   1.017
   28DIO    H19 1567   2.802   6.693   1.103
   28DIO    H20 1568   2.642   6.766   1.092
   29DIO     F1 1569   2.173   5.555   3.789
   29DIO     C1 1570   2.096   5.460   3.734
   29DIO     C2 1571   1.952   5.468   3.749
   29DIO     C3 1572   1.863   5.364   3.692
   29DIO     C4 1573   1.928   5.254   3.618
   29DIO     C5 1574   2.073   5.248   3.605
   29DIO     F2 1575   2.128   5.148   3.533
   29DIO     C6 1576   2.156   5.350   3.662
   29DIO     F3 1577   2.290   5.343   3.650
   29DIO     C7 1578   1.716   5.370   3.707
   29DIO     C8 1579   1.639   5.254   3.756
   29DIO     C9 1580   1.495   5.260   3.770
   29DIO    C10 1581   1.422   5.377   3.726
   29DIO    C11 1582   1.495   5.496   3.685
   29DIO    C12 1583   1.639   5.491   3.673
   29DIO     F4 1584   1.704   5.601   3.629
   29DIO     O1 1585   1.290   5.385   3.765
   29DIO    C13 1586   1.195   5.446   3.682
   29DIO     O2 1587   1.194   5.475   3.560
   29DIO    C14 1588   1.066   5.465   3.749
   29DIO    C15 1589   1.000   5.356   3.824
   29DIO     F5 1590   1.063   5.237   3.840
   29DIO    C16 1591   0.869   5.370   3.885
   29DIO    C17 1592   0.793   5.494   3.869
   29DIO    C18 1593   0.862   5.609   3.811
   29DIO    C19 1594   0.994   5.594   3.751
   29DIO     F6 1595   1.056   5.708   3.712
   29DIO    C20 1596   0.653   5.507   3.922
   29DIO     O3 1597   0.583   5.383   3.932
   29DIO    C21 1598   0.539   5.334   3.806
   29DIO    C22 1599   0.450   5.436   3.735
   29DIO    C23 1600   0.531   5.565   3.725
   29DIO     O4 1601   0.575   5.607   3.854
   29DIO    C24 1602   0.318   5.462   3.810
   29DIO    C25 1603   0.227   5.340   3.830
   29DIO    C26 1604   0.188   5.270   3.700
   29DIO     H1 1605   1.909   5.552   3.803
   29DIO     H2 1606   1.868   5.180   3.566
   29DIO     H3 1607   1.691   5.164   3.787
   29DIO     H4 1608   1.440   5.177   3.813
   29DIO     H5 1609   1.440   5.586   3.658
   29DIO     H6 1610   0.831   5.289   3.945
   29DIO     H7 1611   0.819   5.708   3.816
   29DIO     H8 1612   0.662   5.543   4.025
   29DIO     H9 1613   0.626   5.309   3.744
   29DIO    H10 1614   0.486   5.239   3.823
   29DIO    H11 1615   0.428   5.400   3.634
   29DIO    H12 1616   0.470   5.645   3.683
   29DIO    H13 1617   0.617   5.552   3.659
   29DIO    H14 1618   0.337   5.506   3.908
   29DIO    H15 1619   0.261   5.538   3.754
   29DIO    H16 1620   0.274   5.268   3.898
   29DIO    H17 1621   0.135   5.373   3.880
   29DIO    H18 1622   0.145   5.340   3.629
   29DIO    H19 1623   0.275   5.222   3.654
   29DIO    H20 1624   0.115   5.192   3.721
   30DIO     F1 1625   9.066   7.054   1.262
   30DIO     C1 1626   8.989   6.979   1.182
   30DIO     C2 1627   8.845   6.983   1.198
   30DIO     C3 1628   8.756   6.900   1.113
   30DIO     C4 1629   8.821   6.817   1.010
   30DIO     C5 1630   8.966   6.815   0.996
   30DIO     F2 1631   9.021   6.741   0.898
   30DIO     C6 1632   9.049   6.896   1.081
   30DIO     F3 1633   9.183   6.893   1.067
   30DIO     C7 1634   8.609   6.902   1.129
   30DIO     C8 1635   8.532   6.776   1.142
   30DIO     C9 1636   8.388   6.777   1.157
   30DIO    C10 1637   8.315   6.903   1.150
   30DIO    C11 1638   8.388   7.029   1.146
   30DIO    C12 1639   8.532   7.027   1.133
   30DIO     F4 1640   8.597   7.145   1.124
   30DIO     O1 1641   8.183   6.899   1.189
   30DIO    C13 1642   8.088   6.981   1.128
   30DIO     O2 1643   8.087   7.045   1.020
   30DIO    C14 1644   7.959   6.980   1.198
   30DIO    C15 1645   7.893   6.853   1.237
   30DIO     F5 1646   7.956   6.735   1.217
   30DIO    C16 1647   7.762   6.849   1.299
   30DIO    C17 1648   7.686   6.972   1.321
   30DIO    C18 1649   7.755   7.099   1.299
   30DIO    C19 1650   7.887   7.103   1.238
   30DIO     F6 1651   7.949   7.222   1.234
   30DIO    C20 1652   7.546   6.969   1.375
   30DIO     O3 1653   7.476   6.847   1.348
   30DIO    C21 1654   7.432   6.837   1.213
   30DIO    C22 1655   7.343   6.956   1.176
   30DIO    C23 1656   7.424   7.082   1.205
   30DIO     O4 1657   7.468   7.084   1.340
   30DIO    C24 1658   7.211   6.959   1.255
   30DIO    C25 1659   7.120   6.836   1.238
   30DIO    C26 1660   7.081   6.808   1.094
   30DIO     H1 1661   8.802   7.047   1.274
   30DIO     H2 1662   8.761   6.762   0.939
   30DIO     H3 1663   8.584   6.681   1.145
   30DIO     H4 1664   8.333   6.686   1.174
   30DIO     H5 1665   8.333   7.122   1.146
   30DIO     H6 1666   7.724   6.754   1.333
   30DIO     H7 1667   7.712   7.192   1.334
   30DIO     H8 1668   7.555   6.973   1.484
   30DIO     H9 1669   7.519   6.832   1.146
   30DIO    H10 1670   7.379   6.742   1.202
   30DIO    H11 1671   7.321   6.952   1.069
   30DIO    H12 1672   7.363   7.171   1.188
   30DIO    H13 1673   7.510   7.090   1.137
   30DIO    H14 1674   7.230   6.971   1.362
   30DIO    H15 1675   7.154   7.048   1.224
   30DIO    H16 1676   7.167   6.748   1.282
   30DIO    H17 1677   7.028   6.853   1.296
   30DIO    H18 1678   7.038   6.896   1.046
   30DIO    H19 1679   7.168   6.776   1.035
   30DIO    H20 1680   7.008   6.727   1.090
   31DIO     F1 1681   7.432   7.046   7.468
   31DIO     C1 1682   7.355   6.945   7.512
   31DIO     C2 1683   7.211   6.962   7.514
   31DIO     C3 1684   7.122   6.854   7.564
   31DIO     C4 1685   7.187   6.729   7.610
   31DIO     C5 1686   7.332   6.715   7.607
   31DIO     F2 1687   7.387   6.598   7.645
   31DIO     C6 1688   7.415   6.822   7.558
   31DIO     F3 1689   7.549   6.808   7.557
   31DIO     C7 1690   6.975   6.870   7.568
   31DIO     C8 1691   6.898   6.840   7.691
   31DIO     C9 1692   6.754   6.855   7.695
   31DIO    C10 1693   6.681   6.890   7.574
   31DIO    C11 1694   6.753   6.927   7.454
   31DIO    C12 1695   6.898   6.915   7.451
   31DIO     F4 1696   6.962   6.944   7.337
   31DIO     O1 1697   6.549   6.925   7.591
   31DIO    C13 1698   6.454   6.895   7.493
   31DIO     O2 1699   6.453   6.813   7.397
   31DIO    C14 1700   6.325   6.960   7.517
   31DIO    C15 1701   6.259   6.955   7.649
   31DIO     F5 1702   6.321   6.898   7.754
   31DIO    C16 1703   6.128   7.014   7.674
   31DIO    C17 1704   6.052   7.074   7.564
   31DIO    C18 1705   6.121   7.095   7.438
   31DIO    C19 1706   6.253   7.038   7.414
   31DIO     F6 1707   6.315   7.074   7.300
   31DIO    C20 1708   5.912   7.124   7.585
   31DIO     O3 1709   5.842   7.059   7.692
   31DIO    C21 1710   5.798   6.928   7.657
   31DIO    C22 1711   5.709   6.932   7.533
   31DIO    C23 1712   5.790   7.000   7.423
   31DIO     O4 1713   5.834   7.129   7.465
   31DIO    C24 1714   5.576   7.007   7.556
   31DIO    C25 1715   5.486   6.951   7.666
   31DIO    C26 1716   5.447   6.805   7.646
   31DIO     H1 1717   7.168   7.055   7.479
   31DIO     H2 1718   7.127   6.644   7.638
   31DIO     H3 1719   6.950   6.812   7.782
   31DIO     H4 1720   6.698   6.842   7.787
   31DIO     H5 1721   6.699   6.958   7.366
   31DIO     H6 1722   6.090   7.014   7.775
   31DIO     H7 1723   6.078   7.158   7.361
   31DIO     H8 1724   5.921   7.229   7.617
   31DIO     H9 1725   5.885   6.863   7.640
   31DIO    H10 1726   5.745   6.886   7.743
   31DIO    H11 1727   5.687   6.829   7.501
   31DIO    H12 1728   5.729   7.014   7.333
   31DIO    H13 1729   5.876   6.939   7.393
   31DIO    H14 1730   5.596   7.113   7.579
   31DIO    H15 1731   5.520   7.007   7.461
   31DIO    H16 1732   5.533   6.963   7.764
   31DIO    H17 1733   5.394   7.011   7.668
   31DIO    H18 1734   5.403   6.789   7.547
   31DIO    H19 1735   5.534   6.739   7.656
   31DIO    H20 1736   5.374   6.776   7.721
   32DIO     F1 1737   4.610   8.723   2.579
   32DIO     C1 1738   4.533   8.824   2.623
   32DIO     C2 1739   4.388   8.814   2.609
   32DIO     C3 1740   4.300   8.923   2.654
   32DIO     C4 1741   4.365   9.041   2.716
   32DIO     C5 1742   4.509   9.049   2.728
   32DIO     F2 1743   4.565   9.156   2.788
   32DIO     C6 1744   4.593   8.940   2.683
   32DIO     F3 1745   4.727   8.949   2.694
   32DIO     C7 1746   4.153   8.916   2.640
   32DIO     C8 1747   4.076   9.026   2.579
   32DIO     C9 1748   3.931   9.019   2.565
   32DIO    C10 1749   3.859   8.906   2.622
   32DIO    C11 1750   3.931   8.793   2.676
   32DIO    C12 1751   4.075   8.799   2.687
   32DIO     F4 1752   4.140   8.695   2.742
   32DIO     O1 1753   3.727   8.894   2.584
   32DIO    C13 1754   3.632   8.843   2.673
   32DIO     O2 1755   3.631   8.828   2.798
   32DIO    C14 1756   3.503   8.817   2.608
   32DIO    C15 1757   3.437   8.917   2.522
   32DIO     F5 1758   3.499   9.033   2.493
   32DIO    C16 1759   3.306   8.896   2.463
   32DIO    C17 1760   3.230   8.775   2.493
   32DIO    C18 1761   3.299   8.667   2.563
   32DIO    C19 1762   3.431   8.688   2.621
   32DIO     F6 1763   3.493   8.580   2.672
   32DIO    C20 1764   3.089   8.756   2.441
   32DIO     O3 1765   3.020   8.879   2.418
   32DIO    C21 1766   2.976   8.941   2.538
   32DIO    C22 1767   2.887   8.848   2.619
   32DIO    C23 1768   2.968   8.720   2.643
   32DIO     O4 1769   3.012   8.664   2.520
   32DIO    C24 1770   2.754   8.813   2.548
   32DIO    C25 1771   2.664   8.932   2.514
   32DIO    C26 1772   2.625   9.016   2.635
   32DIO     H1 1773   4.346   8.724   2.565
   32DIO     H2 1774   4.305   9.120   2.759
   32DIO     H3 1775   4.128   9.112   2.538
   32DIO     H4 1776   3.876   9.096   2.513
   32DIO     H5 1777   3.877   8.707   2.713
   32DIO     H6 1778   3.268   8.970   2.394
   32DIO     H7 1779   3.256   8.568   2.569
   32DIO     H8 1780   3.099   8.709   2.343
   32DIO     H9 1781   3.063   8.973   2.597
   32DIO    H10 1782   2.923   9.033   2.510
   32DIO    H11 1783   2.865   8.894   2.716
   32DIO    H12 1784   2.907   8.645   2.694
   32DIO    H13 1785   3.054   8.740   2.708
   32DIO    H14 1786   2.774   8.759   2.455
   32DIO    H15 1787   2.698   8.744   2.612
   32DIO    H16 1788   2.711   8.996   2.439
   32DIO    H17 1789   2.572   8.893   2.468
   32DIO    H18 1790   2.581   8.954   2.714
   32DIO    H19 1791   2.712   9.069   2.677
   32DIO    H20 1792   2.552   9.092   2.606
   33DIO     F1 1793   6.564   6.226   7.129
   33DIO     C1 1794   6.486   6.267   7.027
   33DIO     C2 1795   6.342   6.254   7.037
   33DIO     C3 1796   6.254   6.296   6.927
   33DIO     C4 1797   6.319   6.355   6.807
   33DIO     C5 1798   6.463   6.367   6.800
   33DIO     F2 1799   6.519   6.425   6.691
   33DIO     C6 1800   6.547   6.324   6.909
   33DIO     F3 1801   6.681   6.335   6.900
   33DIO     C7 1802   6.107   6.282   6.935
   33DIO     C8 1803   6.030   6.218   6.826
   33DIO     C9 1804   5.885   6.205   6.833
   33DIO    C10 1805   5.813   6.264   6.944
   33DIO    C11 1806   5.885   6.321   7.057
   33DIO    C12 1807   6.029   6.332   7.050
   33DIO     F4 1808   6.094   6.390   7.153
   33DIO     O1 1809   5.681   6.227   6.957
   33DIO    C13 1810   5.586   6.317   7.007
   33DIO     O2 1811   5.585   6.442   7.019
   33DIO    C14 1812   5.457   6.253   7.034
   33DIO    C15 1813   5.391   6.165   6.936
   33DIO     F5 1814   5.453   6.133   6.821
   33DIO    C16 1815   5.260   6.106   6.959
   33DIO    C17 1816   5.184   6.139   7.079
   33DIO    C18 1817   5.253   6.211   7.185
   33DIO    C19 1818   5.384   6.269   7.163
   33DIO     F6 1819   5.447   6.322   7.270
   33DIO    C20 1820   5.043   6.088   7.099
   33DIO     O3 1821   4.974   6.061   6.977
   33DIO    C21 1822   4.930   6.179   6.912
   33DIO    C22 1823   4.841   6.263   7.003
   33DIO    C23 1824   4.922   6.290   7.130
   33DIO     O4 1825   4.966   6.168   7.189
   33DIO    C24 1826   4.708   6.193   7.039
   33DIO    C25 1827   4.618   6.156   6.921
   33DIO    C26 1828   4.579   6.275   6.834
   33DIO     H1 1829   6.300   6.212   7.128
   33DIO     H2 1830   6.258   6.397   6.728
   33DIO     H3 1831   6.082   6.176   6.741
   33DIO     H4 1832   5.830   6.151   6.758
   33DIO     H5 1833   5.831   6.360   7.142
   33DIO     H6 1834   5.222   6.035   6.886
   33DIO     H7 1835   5.210   6.219   7.284
   33DIO     H8 1836   5.053   5.990   7.149
   33DIO     H9 1837   5.017   6.238   6.879
   33DIO    H10 1838   4.877   6.150   6.820
   33DIO    H11 1839   4.819   6.359   6.955
   33DIO    H12 1840   4.861   6.342   7.204
   33DIO    H13 1841   5.008   6.354   7.109
   33DIO    H14 1842   4.728   6.101   7.096
   33DIO    H15 1843   4.652   6.258   7.107
   33DIO    H16 1844   4.665   6.080   6.859
   33DIO    H17 1845   4.526   6.111   6.961
   33DIO    H18 1846   4.535   6.356   6.895
   33DIO    H19 1847   4.666   6.315   6.781
   33DIO    H20 1848   4.506   6.245   6.759
   34DIO     F1 1849   3.044   1.023   3.759
   34DIO     C1 1850   2.967   1.000   3.651
   34DIO     C2 1851   2.823   0.995   3.667
   34DIO     C3 1852   2.734   0.968   3.552
   34DIO     C4 1853   2.799   0.950   3.420
   34DIO     C5 1854   2.944   0.955   3.407
   34DIO     F2 1855   2.999   0.942   3.285
   34DIO     C6 1856   3.027   0.981   3.522
   34DIO     F3 1857   3.161   0.985   3.508
   34DIO     C7 1858   2.587   0.961   3.566
   34DIO     C8 1859   2.510   0.847   3.512
   34DIO     C9 1860   2.366   0.840   3.526
   34DIO    C10 1861   2.293   0.951   3.585
   34DIO    C11 1862   2.365   1.061   3.646
   34DIO    C12 1863   2.510   1.066   3.634
   34DIO     F4 1864   2.574   1.172   3.687
   34DIO     O1 1865   2.161   0.928   3.616
   34DIO    C13 1866   2.066   1.030   3.607
   34DIO     O2 1867   2.065   1.140   3.546
   34DIO    C14 1868   1.937   0.992   3.665
   34DIO    C15 1869   1.871   0.864   3.633
   34DIO     F5 1870   1.933   0.773   3.555
   34DIO    C16 1871   1.740   0.828   3.685
   34DIO    C17 1872   1.664   0.923   3.766
   34DIO    C18 1873   1.733   1.042   3.813
   34DIO    C19 1874   1.865   1.077   3.763
   34DIO     F6 1875   1.927   1.181   3.822
   34DIO    C20 1876   1.524   0.892   3.812
   34DIO     O3 1877   1.454   0.801   3.725
   34DIO    C21 1878   1.410   0.863   3.605
   34DIO    C22 1879   1.321   0.983   3.634
   34DIO    C23 1880   1.402   1.077   3.724
   34DIO     O4 1881   1.446   1.009   3.841
   34DIO    C24 1882   1.188   0.945   3.703
   34DIO    C25 1883   1.098   0.849   3.626
   34DIO    C26 1884   1.059   0.899   3.487
   34DIO     H1 1885   2.780   1.011   3.766
   34DIO     H2 1886   2.739   0.939   3.331
   34DIO     H3 1887   2.562   0.764   3.466
   34DIO     H4 1888   2.310   0.753   3.493
   34DIO     H5 1889   2.311   1.141   3.694
   34DIO     H6 1890   1.702   0.729   3.665
   34DIO     H7 1891   1.690   1.104   3.891
   34DIO     H8 1892   1.533   0.839   3.907
   34DIO     H9 1893   1.497   0.892   3.545
   34DIO    H10 1894   1.357   0.787   3.546
   34DIO    H11 1895   1.299   1.035   3.540
   34DIO    H12 1896   1.341   1.162   3.756
   34DIO    H13 1897   1.488   1.118   3.670
   34DIO    H14 1898   1.208   0.901   3.802
   34DIO    H15 1899   1.132   1.037   3.722
   34DIO    H16 1900   1.145   0.750   3.617
   34DIO    H17 1901   1.006   0.834   3.684
   34DIO    H18 1902   1.015   0.999   3.492
   34DIO    H19 1903   1.146   0.902   3.420
   34DIO    H20 1904   0.986   0.831   3.442
   35DIO     F1 1905   5.035   2.589   3.052
   35DIO     C1 1906   4.958   2.496   3.110
   35DIO     C2 1907   4.814   2.513   3.110
   35DIO     C3 1908   4.725   2.414   3.175
   35DIO     C4 1909   4.790   2.297   3.238
   35DIO     C5 1910   4.935   2.282   3.237
   35DIO     F2 1911   4.990   2.172   3.291
   35DIO     C6 1912   5.018   2.381   3.173
   35DIO     F3 1913   5.152   2.366   3.174
   35DIO     C7 1914   4.578   2.430   3.176
   35DIO     C8 1915   4.501   2.418   3.302
   35DIO     C9 1916   4.357   2.433   3.304
   35DIO    C10 1917   4.284   2.450   3.179
   35DIO    C11 1918   4.356   2.469   3.055
   35DIO    C12 1919   4.501   2.457   3.054
   35DIO     F4 1920   4.565   2.470   2.936
   35DIO     O1 1921   4.152   2.488   3.190
   35DIO    C13 1922   4.057   2.444   3.098
   35DIO     O2 1923   4.056   2.349   3.015
   35DIO    C14 1924   3.928   2.512   3.113
   35DIO    C15 1925   3.862   2.526   3.244
   35DIO     F5 1926   3.924   2.485   3.356
   35DIO    C16 1927   3.731   2.587   3.260
   35DIO    C17 1928   3.655   2.631   3.143
   35DIO    C18 1929   3.724   2.633   3.014
   35DIO    C19 1930   3.856   2.574   2.999
   35DIO     F6 1931   3.918   2.593   2.881
   35DIO    C20 1932   3.515   2.684   3.156
   35DIO     O3 1933   3.445   2.634   3.271
   35DIO    C21 1934   3.401   2.500   3.255
   35DIO    C22 1935   3.312   2.485   3.132
   35DIO    C23 1936   3.393   2.537   3.013
   35DIO     O4 1937   3.437   2.671   3.036
   35DIO    C24 1938   3.179   2.564   3.144
   35DIO    C25 1939   3.089   2.524   3.261
   35DIO    C26 1940   3.050   2.377   3.262
   35DIO     H1 1941   4.771   2.599   3.061
   35DIO     H2 1942   4.730   2.216   3.278
   35DIO     H3 1943   4.553   2.403   3.396
   35DIO     H4 1944   4.301   2.433   3.397
   35DIO     H5 1945   4.302   2.487   2.963
   35DIO     H6 1946   3.693   2.602   3.360
   35DIO     H7 1947   3.681   2.685   2.929
   35DIO     H8 1948   3.524   2.792   3.173
   35DIO     H9 1949   3.488   2.433   3.248
   35DIO    H10 1950   3.348   2.471   3.347
   35DIO    H11 1951   3.290   2.380   3.116
   35DIO    H12 1952   3.332   2.538   2.922
   35DIO    H13 1953   3.479   2.472   2.993
   35DIO    H14 1954   3.199   2.671   3.151
   35DIO    H15 1955   3.123   2.550   3.051
   35DIO    H16 1956   3.136   2.550   3.356
   35DIO    H17 1957   2.997   2.584   3.255
   35DIO    H18 1958   3.006   2.347   3.167
   35DIO    H19 1959   3.137   2.313   3.282
   35DIO    H20 1960   2.977   2.358   3.341
   36DIO     F1 1961   7.891   7.561   9.896
   36DIO     C1 1962   7.813   7.620   9.803
   36DIO     C2 1963   7.669   7.605   9.811
   36DIO     C3 1964   7.580   7.667   9.710
   36DIO     C4 1965   7.646   7.746   9.603
   36DIO     C5 1966   7.790   7.759   9.597
   36DIO     F2 1967   7.846   7.836   9.501
   36DIO     C6 1968   7.874   7.697   9.697
   36DIO     F3 1969   8.008   7.710   9.690
   36DIO     C7 1970   7.434   7.652   9.715
   36DIO     C8 1971   7.357   7.608   9.596
   36DIO     C9 1972   7.212   7.594   9.601
   36DIO    C10 1973   7.140   7.632   9.721
   36DIO    C11 1974   7.212   7.668   9.842
   36DIO    C12 1975   7.356   7.680   9.837
   36DIO     F4 1976   7.421   7.718   9.949
   36DIO     O1 1977   7.007   7.593   9.727
   36DIO    C13 1978   6.913   7.673   9.792
   36DIO     O2 1979   6.912   7.794   9.826
   36DIO    C14 1980   6.784   7.605   9.808
   36DIO    C15 1981   6.718   7.536   9.695
   36DIO     F5 1982   6.780   7.525   9.576
   36DIO    C16 1983   6.587   7.474   9.707
   36DIO    C17 1984   6.511   7.484   9.831
   36DIO    C18 1985   6.580   7.537   9.949
   36DIO    C19 1986   6.711   7.597   9.937
   36DIO     F6 1987   6.774   7.631  10.052
   36DIO    C20 1988   6.370   7.430   9.842
   36DIO     O3 1989   6.301   7.426   9.717
   36DIO    C21 1990   6.257   7.554   9.674
   36DIO    C22 1991   6.168   7.620   9.779
   36DIO    C23 1992   6.249   7.624   9.909
   36DIO     O4 1993   6.293   7.494   9.945
   36DIO    C24 1994   6.035   7.545   9.802
   36DIO    C25 1995   5.945   7.530   9.679
   36DIO    C26 1996   5.906   7.663   9.615
   36DIO     H1 1997   7.627   7.548   9.892
   36DIO     H2 1998   7.585   7.801   9.532
   36DIO     H3 1999   7.408   7.581   9.505
   36DIO     H4 2000   7.157   7.554   9.517
   36DIO     H5 2001   7.158   7.691   9.932
   36DIO     H6 2002   6.549   7.417   9.623
   36DIO     H7 2003   6.537   7.527  10.047
   36DIO     H8 2004   6.380   7.326   9.873
   36DIO     H9 2005   6.344   7.618   9.652
   36DIO    H10 2006   6.204   7.542   9.579
   36DIO    H11 2007   6.145   7.723   9.748
   36DIO    H12 2008   6.188   7.662   9.991
   36DIO    H13 2009   6.335   7.691   9.899
   36DIO    H14 2010   6.055   7.444   9.841
   36DIO    H15 2011   5.979   7.597   9.880
   36DIO    H16 2012   5.992   7.466   9.604
   36DIO    H17 2013   5.853   7.478   9.710
   36DIO    H18 2014   5.862   7.731   9.688
   36DIO    H19 2015   5.993   7.712   9.569
   36DIO    H20 2016   5.832   7.646   9.536
   37DIO     F1 2017   2.411   0.484   3.137
   37DIO     C1 2018   2.333   0.388   3.085
   37DIO     C2 2019   2.189   0.396   3.100
   37DIO     C3 2020   2.100   0.291   3.046
   37DIO     C4 2021   2.166   0.178   2.975
   37DIO     C5 2022   2.310   0.172   2.962
   37DIO     F2 2023   2.366   0.070   2.893
   37DIO     C6 2024   2.394   0.276   3.016
   37DIO     F3 2025   2.528   0.269   3.004
   37DIO     C7 2026   1.954   0.297   3.060
   37DIO     C8 2027   1.877   0.182   3.113
   37DIO     C9 2028   1.732   0.189   3.126
   37DIO    C10 2029   1.660   0.305   3.080
   37DIO    C11 2030   1.732   0.423   3.035
   37DIO    C12 2031   1.876   0.417   3.023
   37DIO     F4 2032   1.941   0.526   2.977
   37DIO     O1 2033   1.527   0.314   3.118
   37DIO    C13 2034   1.433   0.372   3.034
   37DIO     O2 2035   1.432   0.398   2.910
   37DIO    C14 2036   1.304   0.393   3.100
   37DIO    C15 2037   1.237   0.286   3.178
   37DIO     F5 2038   1.300   0.168   3.197
   37DIO    C16 2039   1.107   0.303   3.238
   37DIO    C17 2040   1.031   0.426   3.219
   37DIO    C18 2041   1.100   0.539   3.157
   37DIO    C19 2042   1.231   0.522   3.098
   37DIO     F6 2043   1.294   0.635   3.056
   37DIO    C20 2044   0.890   0.440   3.271
   37DIO     O3 2045   0.820   0.316   3.285
   37DIO    C21 2046   0.777   0.263   3.160
   37DIO    C22 2047   0.688   0.363   3.087
   37DIO    C23 2048   0.769   0.493   3.073
   37DIO     O4 2049   0.813   0.538   3.201
   37DIO    C24 2050   0.555   0.392   3.161
   37DIO    C25 2051   0.464   0.271   3.184
   37DIO    C26 2052   0.426   0.197   3.057
   37DIO     H1 2053   2.147   0.482   3.151
   37DIO     H2 2054   2.105   0.104   2.925
   37DIO     H3 2055   1.928   0.093   3.146
   37DIO     H4 2056   1.677   0.108   3.172
   37DIO     H5 2057   1.678   0.511   3.005
   37DIO     H6 2058   1.069   0.223   3.301
   37DIO     H7 2059   1.057   0.638   3.160
   37DIO     H8 2060   0.900   0.479   3.374
   37DIO     H9 2061   0.863   0.237   3.099
   37DIO    H10 2062   0.724   0.170   3.180
   37DIO    H11 2063   0.665   0.325   2.987
   37DIO    H12 2064   0.708   0.572   3.029
   37DIO    H13 2065   0.855   0.478   3.007
   37DIO    H14 2066   0.575   0.438   3.258
   37DIO    H15 2067   0.499   0.466   3.103
   37DIO    H16 2068   0.512   0.201   3.254
   37DIO    H17 2069   0.373   0.305   3.233
   37DIO    H18 2070   0.382   0.265   2.983
   37DIO    H19 2071   0.513   0.148   3.011
   37DIO    H20 2072   0.352   0.119   3.079
   38DIO     F1 2073   2.452   2.426   7.721
   38DIO     C1 2074   2.374   2.495   7.635
   38DIO     C2 2075   2.230   2.479   7.641
   38DIO     C3 2076   2.141   2.551   7.548
   38DIO     C4 2077   2.207   2.641   7.450
   38DIO     C5 2078   2.351   2.655   7.446
   38DIO     F2 2079   2.407   2.742   7.359
   38DIO     C6 2080   2.435   2.583   7.539
   38DIO     F3 2081   2.569   2.596   7.533
   38DIO     C7 2082   1.995   2.536   7.551
   38DIO     C8 2083   1.918   2.505   7.429
   38DIO     C9 2084   1.773   2.490   7.432
   38DIO    C10 2085   1.701   2.515   7.555
   38DIO    C11 2086   1.773   2.538   7.679
   38DIO    C12 2087   1.917   2.550   7.676
   38DIO     F4 2088   1.982   2.576   7.791
   38DIO     O1 2089   1.568   2.476   7.557
   38DIO    C13 2090   1.474   2.548   7.630
   38DIO     O2 2091   1.473   2.664   7.677
   38DIO    C14 2092   1.345   2.479   7.638
   38DIO    C15 2093   1.278   2.422   7.519
   38DIO     F5 2094   1.341   2.425   7.399
   38DIO    C16 2095   1.148   2.360   7.524
   38DIO    C17 2096   1.072   2.356   7.648
   38DIO    C18 2097   1.141   2.396   7.771
   38DIO    C19 2098   1.272   2.457   7.766
   38DIO     F6 2099   1.335   2.478   7.884
   38DIO    C20 2100   0.931   2.302   7.653
   38DIO     O3 2101   0.861   2.311   7.528
   38DIO    C21 2102   0.818   2.443   7.500
   38DIO    C22 2103   0.729   2.497   7.611
   38DIO    C23 2104   0.810   2.487   7.741
   38DIO     O4 2105   0.854   2.353   7.762
   38DIO    C24 2106   0.596   2.420   7.626
   38DIO    C25 2107   0.505   2.419   7.502
   38DIO    C26 2108   0.467   2.557   7.453
   38DIO     H1 2109   2.188   2.413   7.716
   38DIO     H2 2110   2.146   2.704   7.386
   38DIO     H3 2111   1.969   2.489   7.335
   38DIO     H4 2112   1.718   2.460   7.344
   38DIO     H5 2113   1.719   2.550   7.772
   38DIO     H6 2114   1.110   2.312   7.434
   38DIO     H7 2115   1.098   2.375   7.868
   38DIO     H8 2116   0.941   2.194   7.673
   38DIO     H9 2117   0.904   2.509   7.485
   38DIO    H10 2118   0.765   2.441   7.404
   38DIO    H11 2119   0.706   2.603   7.592
   38DIO    H12 2120   0.749   2.516   7.827
   38DIO    H13 2121   0.896   2.555   7.739
   38DIO    H14 2122   0.616   2.315   7.654
   38DIO    H15 2123   0.540   2.463   7.709
   38DIO    H16 2124   0.553   2.363   7.421
   38DIO    H17 2125   0.414   2.364   7.527
   38DIO    H18 2126   0.423   2.617   7.534
   38DIO    H19 2127   0.554   2.611   7.413
   38DIO    H20 2128   0.393   2.549   7.373
   39DIO     F1 2129   7.299   4.921   3.574
   39DIO     C1 2130   7.221   4.836   3.504
   39DIO     C2 2131   7.077   4.842   3.520
   39DIO     C3 2132   6.988   4.749   3.446
   39DIO     C4 2133   7.054   4.653   3.355
   39DIO     C5 2134   7.198   4.650   3.340
   39DIO     F2 2135   7.254   4.564   3.253
   39DIO     C6 2136   7.282   4.741   3.414
   39DIO     F3 2137   7.416   4.736   3.401
   39DIO     C7 2138   6.842   4.753   3.462
   39DIO     C8 2139   6.765   4.630   3.490
   39DIO     C9 2140   6.620   4.633   3.505
   39DIO    C10 2141   6.548   4.757   3.482
   39DIO    C11 2142   6.620   4.881   3.462
   39DIO    C12 2143   6.764   4.878   3.450
   39DIO     F4 2144   6.829   4.993   3.425
   39DIO     O1 2145   6.415   4.758   3.521
   39DIO    C13 2146   6.321   4.832   3.451
   39DIO     O2 2147   6.320   4.881   3.335
   39DIO    C14 2148   6.192   4.839   3.520
   39DIO    C15 2149   6.125   4.719   3.575
   39DIO     F5 2150   6.188   4.599   3.570
   39DIO    C16 2151   5.995   4.723   3.637
   39DIO    C17 2152   5.919   4.847   3.642
   39DIO    C18 2153   5.988   4.970   3.605
   39DIO    C19 2154   6.119   4.966   3.544
   39DIO     F6 2155   6.182   5.084   3.525
   39DIO    C20 2156   5.778   4.851   3.697
   39DIO     O3 2157   5.708   4.727   3.686
   39DIO    C21 2158   5.665   4.700   3.553
   39DIO    C22 2159   5.576   4.812   3.501
   39DIO    C23 2160   5.657   4.941   3.514
   39DIO     O4 2161   5.701   4.961   3.648
   39DIO    C24 2162   5.443   4.826   3.579
   39DIO    C25 2163   5.352   4.702   3.578
   39DIO    C26 2164   5.314   4.655   3.439
   39DIO     H1 2165   7.035   4.916   3.587
   39DIO     H2 2166   6.993   4.590   3.291
   39DIO     H3 2167   6.816   4.536   3.505
   39DIO     H4 2168   6.565   4.545   3.534
   39DIO     H5 2169   6.566   4.974   3.450
   39DIO     H6 2170   5.957   4.632   3.683
   39DIO     H7 2171   5.945   5.067   3.627
   39DIO     H8 2172   5.788   4.869   3.805
   39DIO     H9 2173   5.751   4.686   3.488
   39DIO    H10 2174   5.612   4.604   3.554
   39DIO    H11 2175   5.553   4.795   3.395
   39DIO    H12 2176   5.596   5.028   3.486
   39DIO    H13 2177   5.743   4.940   3.446
   39DIO    H14 2178   5.463   4.852   3.684
   39DIO    H15 2179   5.387   4.910   3.537
   39DIO    H16 2180   5.400   4.620   3.633
   39DIO    H17 2181   5.261   4.726   3.633
   39DIO    H18 2182   5.270   4.736   3.380
   39DIO    H19 2183   5.401   4.616   3.384
   39DIO    H20 2184   5.240   4.574   3.445
   40DIO     F1 2185   8.313   2.070   6.387
   40DIO     C1 2186   8.235   2.130   6.480
   40DIO     C2 2187   8.091   2.129   6.463
   40DIO     C3 2188   8.002   2.195   6.561
   40DIO     C4 2189   8.068   2.259   6.678
   40DIO     C5 2190   8.212   2.259   6.692
   40DIO     F2 2191   8.268   2.314   6.802
   40DIO     C6 2192   8.296   2.194   6.594
   40DIO     F3 2193   8.430   2.195   6.608
   40DIO     C7 2194   7.856   2.197   6.545
   40DIO     C8 2195   7.779   2.322   6.555
   40DIO     C9 2196   7.634   2.324   6.540
   40DIO    C10 2197   7.562   2.199   6.525
   40DIO    C11 2198   7.634   2.075   6.507
   40DIO    C12 2199   7.778   2.074   6.519
   40DIO     F4 2200   7.843   1.956   6.508
   40DIO     O1 2201   7.429   2.210   6.487
   40DIO    C13 2202   7.335   2.118   6.532
   40DIO     O2 2203   7.334   2.036   6.628
   40DIO    C14 2204   7.206   2.132   6.464
   40DIO    C15 2205   7.139   2.263   6.448
   40DIO     F5 2206   7.202   2.376   6.488
   40DIO    C16 2207   7.009   2.278   6.387
   40DIO    C17 2208   6.933   2.161   6.345
   40DIO    C18 2209   7.002   2.032   6.343
   40DIO    C19 2210   7.133   2.018   6.403
   40DIO     F6 2211   7.196   1.899   6.386
   40DIO    C20 2212   6.792   2.174   6.291
   40DIO     O3 2213   6.722   2.289   6.340
   40DIO    C21 2214   6.679   2.275   6.474
   40DIO    C22 2215   6.590   2.152   6.490
   40DIO    C23 2216   6.671   2.032   6.439
   40DIO     O4 2217   6.715   2.054   6.306
   40DIO    C24 2218   6.457   2.163   6.412
   40DIO    C25 2219   6.366   2.280   6.450
   40DIO    C26 2220   6.328   2.283   6.597
   40DIO     H1 2221   8.049   2.079   6.377
   40DIO     H2 2222   8.007   2.301   6.758
   40DIO     H3 2223   7.830   2.417   6.569
   40DIO     H4 2224   7.579   2.417   6.539
   40DIO     H5 2225   7.580   1.983   6.490
   40DIO     H6 2226   6.971   2.378   6.371
   40DIO     H7 2227   6.959   1.947   6.293
   40DIO     H8 2228   6.802   2.189   6.183
   40DIO     H9 2229   6.765   2.268   6.541
   40DIO    H10 2230   6.626   2.366   6.502
   40DIO    H11 2231   6.567   2.136   6.596
   40DIO    H12 2232   6.610   1.941   6.440
   40DIO    H13 2233   6.757   2.013   6.504
   40DIO    H14 2234   6.477   2.169   6.304
   40DIO    H15 2235   6.401   2.070   6.427
   40DIO    H16 2236   6.414   2.375   6.422
   40DIO    H17 2237   6.275   2.273   6.390
   40DIO    H18 2238   6.284   2.188   6.628
   40DIO    H19 2239   6.415   2.304   6.661
   40DIO    H20 2240   6.254   2.362   6.615
   41DIO     F1 2241   6.498   9.519   0.355
   41DIO     C1 2242   6.420   9.623   0.319
   41DIO     C2 2243   6.276   9.606   0.315
   41DIO     C3 2244   6.187   9.717   0.274
   41DIO     C4 2245   6.253   9.845   0.238
   41DIO     C5 2246   6.397   9.859   0.242
   41DIO     F2 2247   6.452   9.978   0.213
   41DIO     C6 2248   6.481   9.749   0.283
   41DIO     F3 2249   6.614   9.763   0.285
   41DIO     C7 2250   6.041   9.702   0.269
   41DIO     C8 2251   5.964   9.741   0.148
   41DIO     C9 2252   5.819   9.726   0.144
   41DIO    C10 2253   5.746   9.682   0.261
   41DIO    C11 2254   5.819   9.636   0.378
   41DIO    C12 2255   5.963   9.648   0.382
   41DIO     F4 2256   6.028   9.610   0.494
   41DIO     O1 2257   5.614   9.648   0.242
   41DIO    C13 2258   5.520   9.671   0.342
   41DIO     O2 2259   5.519   9.745   0.444
   41DIO    C14 2260   5.391   9.608   0.313
   41DIO    C15 2261   5.324   9.623   0.181
   41DIO     F5 2262   5.387   9.688   0.081
   41DIO    C16 2263   5.193   9.567   0.153
   41DIO    C17 2264   5.118   9.498   0.257
   41DIO    C18 2265   5.186   9.468   0.382
   41DIO    C19 2266   5.318   9.523   0.410
   41DIO     F6 2267   5.381   9.478   0.521
   41DIO    C20 2268   4.977   9.449   0.232
   41DIO     O3 2269   4.907   9.523   0.131
   41DIO    C21 2270   4.864   9.651   0.176
   41DIO    C22 2271   4.775   9.638   0.299
   41DIO    C23 2272   4.855   9.561   0.404
   41DIO     O4 2273   4.900   9.436   0.352
   41DIO    C24 2274   4.642   9.564   0.271
   41DIO    C25 2275   4.551   9.628   0.165
   41DIO    C26 2276   4.513   9.772   0.196
   41DIO     H1 2277   6.233   9.511   0.344
   41DIO     H2 2278   6.192   9.932   0.216
   41DIO     H3 2279   6.015   9.776   0.060
   41DIO     H4 2280   5.764   9.747   0.053
   41DIO     H5 2281   5.764   9.599   0.464
   41DIO     H6 2282   5.155   9.574   0.052
   41DIO     H7 2283   5.144   9.399   0.454
   41DIO     H8 2284   4.987   9.348   0.192
   41DIO     H9 2285   4.950   9.714   0.198
   41DIO    H10 2286   4.811   9.699   0.094
   41DIO    H11 2287   4.752   9.737   0.339
   41DIO    H12 2288   4.794   9.540   0.493
   41DIO    H13 2289   4.942   9.620   0.438
   41DIO    H14 2290   4.662   9.461   0.240
   41DIO    H15 2291   4.585   9.557   0.365
   41DIO    H16 2292   4.599   9.623   0.067
   41DIO    H17 2293   4.459   9.568   0.158
   41DIO    H18 2294   4.469   9.781   0.296
   41DIO    H19 2295   4.599   9.839   0.191
   41DIO    H20 2296   4.439   9.808   0.124
   42DIO     F1 2297   2.650   7.991   3.107
   42DIO     C1 2298   2.572   7.898   3.048
   42DIO     C2 2299   2.428   7.906   3.063
   42DIO     C3 2300   2.339   7.805   3.001
   42DIO     C4 2301   2.405   7.699   2.921
   42DIO     C5 2302   2.549   7.693   2.907
   42DIO     F2 2303   2.604   7.597   2.831
   42DIO     C6 2304   2.633   7.793   2.970
   42DIO     F3 2305   2.766   7.786   2.957
   42DIO     C7 2306   2.193   7.810   3.016
   42DIO     C8 2307   2.116   7.691   3.059
   42DIO     C9 2308   1.971   7.696   3.073
   42DIO    C10 2309   1.898   7.816   3.036
   42DIO    C11 2310   1.971   7.937   3.000
   42DIO    C12 2311   2.115   7.933   2.989
   42DIO     F4 2312   2.180   8.045   2.950
   42DIO     O1 2313   1.766   7.822   3.074
   42DIO    C13 2314   1.672   7.887   2.995
   42DIO     O2 2315   1.671   7.922   2.874
   42DIO    C14 2316   1.542   7.903   3.063
   42DIO    C15 2317   1.476   7.790   3.132
   42DIO     F5 2318   1.539   7.671   3.142
   42DIO    C16 2319   1.345   7.801   3.194
   42DIO    C17 2320   1.270   7.926   3.184
   42DIO    C18 2321   1.338   8.043   3.132
   42DIO    C19 2322   1.470   8.032   3.071
   42DIO     F6 2323   1.532   8.147   3.039
   42DIO    C20 2324   1.129   7.936   3.238
   42DIO     O3 2325   1.059   7.811   3.241
   42DIO    C21 2326   1.015   7.768   3.113
   42DIO    C22 2327   0.927   7.874   3.048
   42DIO    C23 2328   1.007   8.004   3.044
   42DIO     O4 2329   1.052   8.039   3.175
   42DIO    C24 2330   0.794   7.896   3.123
   42DIO    C25 2331   0.703   7.774   3.137
   42DIO    C26 2332   0.665   7.710   3.004
   42DIO     H1 2333   2.385   7.987   3.121
   42DIO     H2 2334   2.344   7.628   2.865
   42DIO     H3 2335   2.167   7.600   3.085
   42DIO     H4 2336   1.916   7.612   3.112
   42DIO     H5 2337   1.916   8.028   2.978
   42DIO     H6 2338   1.307   7.717   3.250
   42DIO     H7 2339   1.295   8.142   3.142
   42DIO     H8 2340   1.139   7.967   3.342
   42DIO     H9 2341   1.102   7.747   3.049
   42DIO    H10 2342   0.963   7.674   3.125
   42DIO    H11 2343   0.904   7.844   2.945
   42DIO    H12 2344   0.946   8.086   3.006
   42DIO    H13 2345   1.093   7.994   2.977
   42DIO    H14 2346   0.814   7.935   3.224
   42DIO    H15 2347   0.737   7.975   3.071
   42DIO    H16 2348   0.750   7.698   3.201
   42DIO    H17 2349   0.611   7.804   3.189
   42DIO    H18 2350   0.621   7.784   2.937
   42DIO    H19 2351   0.751   7.665   2.955
   42DIO    H20 2352   0.591   7.631   3.021
   43DIO     F1 2353   2.754   5.788   6.835
   43DIO     C1 2354   2.676   5.720   6.921
   43DIO     C2 2355   2.532   5.736   6.915
   43DIO     C3 2356   2.443   5.664   7.009
   43DIO     C4 2357   2.509   5.575   7.108
   43DIO     C5 2358   2.653   5.561   7.112
   43DIO     F2 2359   2.708   5.475   7.200
   43DIO     C6 2360   2.737   5.632   7.019
   43DIO     F3 2361   2.870   5.619   7.024
   43DIO     C7 2362   2.297   5.680   7.005
   43DIO     C8 2363   2.220   5.711   7.128
   43DIO     C9 2364   2.075   5.726   7.124
   43DIO    C10 2365   2.002   5.700   7.001
   43DIO    C11 2366   2.075   5.676   6.878
   43DIO    C12 2367   2.219   5.664   6.881
   43DIO     F4 2368   2.284   5.637   6.766
   43DIO     O1 2369   1.870   5.739   6.999
   43DIO    C13 2370   1.776   5.667   6.927
   43DIO     O2 2371   1.775   5.550   6.881
   43DIO    C14 2372   1.647   5.736   6.918
   43DIO    C15 2373   1.580   5.793   7.037
   43DIO     F5 2374   1.643   5.792   7.157
   43DIO    C16 2375   1.449   5.856   7.031
   43DIO    C17 2376   1.374   5.858   6.907
   43DIO    C18 2377   1.442   5.817   6.785
   43DIO    C19 2378   1.574   5.756   6.790
   43DIO     F6 2379   1.637   5.735   6.673
   43DIO    C20 2380   1.233   5.912   6.901
   43DIO     O3 2381   1.163   5.904   7.026
   43DIO    C21 2382   1.120   5.772   7.056
   43DIO    C22 2383   1.031   5.717   6.945
   43DIO    C23 2384   1.111   5.727   6.816
   43DIO     O4 2385   1.156   5.860   6.793
   43DIO    C24 2386   0.898   5.795   6.930
   43DIO    C25 2387   0.807   5.797   7.053
   43DIO    C26 2388   0.769   5.659   7.104
   43DIO     H1 2389   2.489   5.801   6.840
   43DIO     H2 2390   2.448   5.512   7.173
   43DIO     H3 2391   2.271   5.729   7.221
   43DIO     H4 2392   2.020   5.757   7.212
   43DIO     H5 2393   2.020   5.663   6.785
   43DIO     H6 2394   1.411   5.904   7.121
   43DIO     H7 2395   1.400   5.837   6.687
   43DIO     H8 2396   1.243   6.020   6.881
   43DIO     H9 2397   1.206   5.707   7.072
   43DIO    H10 2398   1.067   5.775   7.152
   43DIO    H11 2399   1.008   5.612   6.965
   43DIO    H12 2400   1.050   5.697   6.730
   43DIO    H13 2401   1.198   5.659   6.818
   43DIO    H14 2402   0.918   5.899   6.901
   43DIO    H15 2403   0.841   5.751   6.847
   43DIO    H16 2404   0.855   5.854   7.134
   43DIO    H17 2405   0.715   5.852   7.028
   43DIO    H18 2406   0.725   5.598   7.024
   43DIO    H19 2407   0.855   5.605   7.144
   43DIO    H20 2408   0.695   5.667   7.184
   44DIO     F1 2409   4.122   1.711   8.436
   44DIO     C1 2410   4.044   1.714   8.326
   44DIO     C2 2411   3.900   1.705   8.340
   44DIO     C3 2412   3.811   1.705   8.222
   44DIO     C4 2413   3.877   1.718   8.089
   44DIO     C5 2414   4.021   1.727   8.078
   44DIO     F2 2415   4.076   1.742   7.956
   44DIO     C6 2416   4.105   1.725   8.195
   44DIO     F3 2417   4.239   1.732   8.183
   44DIO     C7 2418   3.665   1.695   8.234
   44DIO     C8 2419   3.588   1.597   8.155
   44DIO     C9 2420   3.443   1.587   8.167
   44DIO    C10 2421   3.370   1.681   8.250
   44DIO    C11 2422   3.443   1.774   8.335
   44DIO    C12 2423   3.587   1.782   8.325
   44DIO     F4 2424   3.652   1.873   8.400
   44DIO     O1 2425   3.238   1.651   8.275
   44DIO    C13 2426   3.144   1.753   8.289
   44DIO     O2 2427   3.143   1.874   8.256
   44DIO    C14 2428   3.015   1.703   8.338
   44DIO    C15 2429   2.948   1.585   8.277
   44DIO     F5 2430   3.011   1.515   8.180
   44DIO    C16 2431   2.818   1.539   8.319
   44DIO    C17 2432   2.742   1.612   8.420
   44DIO    C18 2433   2.811   1.717   8.493
   44DIO    C19 2434   2.942   1.763   8.452
   44DIO     F6 2435   3.005   1.851   8.534
   44DIO    C20 2436   2.601   1.571   8.457
   44DIO     O3 2437   2.531   1.503   8.352
   44DIO    C21 2438   2.488   1.591   8.249
   44DIO    C22 2439   2.399   1.701   8.305
   44DIO    C23 2440   2.480   1.771   8.414
   44DIO     O4 2441   2.524   1.678   8.512
   44DIO    C24 2442   2.266   1.648   8.364
   44DIO    C25 2443   2.175   1.572   8.266
   44DIO    C26 2444   2.137   1.653   8.143
   44DIO     H1 2445   3.857   1.697   8.440
   44DIO     H2 2446   3.816   1.729   8.000
   44DIO     H3 2447   3.639   1.527   8.091
   44DIO     H4 2448   3.388   1.510   8.115
   44DIO     H5 2449   3.389   1.841   8.400
   44DIO     H6 2450   2.779   1.447   8.276
   44DIO     H7 2451   2.768   1.759   8.583
   44DIO     H8 2452   2.611   1.497   8.537
   44DIO     H9 2453   2.574   1.633   8.197
   44DIO    H10 2454   2.435   1.531   8.174
   44DIO    H11 2455   2.376   1.773   8.226
   44DIO    H12 2456   2.418   1.846   8.465
   44DIO    H13 2457   2.566   1.824   8.371
   44DIO    H14 2458   2.286   1.582   8.449
   44DIO    H15 2459   2.210   1.733   8.404
   44DIO    H16 2460   2.223   1.479   8.235
   44DIO    H17 2461   2.084   1.544   8.319
   44DIO    H18 2462   2.093   1.749   8.171
   44DIO    H19 2463   2.223   1.672   8.078
   44DIO    H20 2464   2.063   1.598   8.084
   45DIO     F1 2465   8.628   2.587   4.279
   45DIO     C1 2466   8.551   2.526   4.371
   45DIO     C2 2467   8.407   2.541   4.363
   45DIO     C3 2468   8.318   2.478   4.463
   45DIO     C4 2469   8.383   2.397   4.569
   45DIO     C5 2470   8.528   2.383   4.574
   45DIO     F2 2471   8.583   2.306   4.669
   45DIO     C6 2472   8.611   2.447   4.475
   45DIO     F3 2473   8.745   2.434   4.482
   45DIO     C7 2474   8.171   2.493   4.458
   45DIO     C8 2475   8.094   2.535   4.577
   45DIO     C9 2476   7.950   2.549   4.573
   45DIO    C10 2477   7.877   2.513   4.452
   45DIO    C11 2478   7.950   2.479   4.331
   45DIO    C12 2479   8.094   2.467   4.335
   45DIO     F4 2480   8.159   2.430   4.223
   45DIO     O1 2481   7.745   2.552   4.447
   45DIO    C13 2482   7.650   2.473   4.381
   45DIO     O2 2483   7.649   2.353   4.345
   45DIO    C14 2484   7.521   2.541   4.366
   45DIO    C15 2485   7.455   2.609   4.480
   45DIO     F5 2486   7.518   2.617   4.599
   45DIO    C16 2487   7.324   2.671   4.469
   45DIO    C17 2488   7.248   2.662   4.345
   45DIO    C18 2489   7.317   2.612   4.226
   45DIO    C19 2490   7.449   2.551   4.237
   45DIO     F6 2491   7.511   2.520   4.122
   45DIO    C20 2492   7.108   2.716   4.335
   45DIO     O3 2493   7.038   2.719   4.460
   45DIO    C21 2494   6.994   2.590   4.501
   45DIO    C22 2495   6.905   2.526   4.395
   45DIO    C23 2496   6.986   2.524   4.265
   45DIO     O4 2497   7.030   2.655   4.231
   45DIO    C24 2498   6.773   2.602   4.373
   45DIO    C25 2499   6.682   2.614   4.496
   45DIO    C26 2500   6.643   2.481   4.558
   45DIO     H1 2501   8.364   2.600   4.283
   45DIO     H2 2502   8.323   2.340   4.639
   45DIO     H3 2503   8.146   2.560   4.669
   45DIO     H4 2504   7.895   2.587   4.657
   45DIO     H5 2505   7.895   2.458   4.240
   45DIO     H6 2506   7.286   2.726   4.554
   45DIO     H7 2507   7.274   2.623   4.128
   45DIO     H8 2508   7.117   2.821   4.305
   45DIO     H9 2509   7.081   2.526   4.522
   45DIO    H10 2510   6.941   2.601   4.596
   45DIO    H11 2511   6.883   2.422   4.423
   45DIO    H12 2512   6.925   2.487   4.182
   45DIO    H13 2513   7.072   2.456   4.273
   45DIO    H14 2514   6.792   2.703   4.336
   45DIO    H15 2515   6.716   2.550   4.294
   45DIO    H16 2516   6.729   2.677   4.572
   45DIO    H17 2517   6.590   2.666   4.466
   45DIO    H18 2518   6.600   2.414   4.483
   45DIO    H19 2519   6.730   2.431   4.603
   45DIO    H20 2520   6.570   2.496   4.637
   46DIO     F1 2521   4.736   0.121   5.273
   46DIO     C1 2522   4.658   0.229   5.256
   46DIO     C2 2523   4.514   0.214   5.249
   46DIO     C3 2524   4.426   0.330   5.228
   46DIO     C4 2525   4.491   0.463   5.217
   46DIO     C5 2526   4.635   0.476   5.223
   46DIO     F2 2527   4.691   0.598   5.217
   46DIO     C6 2528   4.719   0.360   5.243
   46DIO     F3 2529   4.853   0.373   5.248
   46DIO     C7 2530   4.279   0.316   5.221
   46DIO     C8 2531   4.202   0.376   5.110
   46DIO     C9 2532   4.057   0.363   5.102
   46DIO    C10 2533   3.985   0.298   5.210
   46DIO    C11 2534   4.057   0.232   5.317
   46DIO    C12 2535   4.201   0.243   5.323
   46DIO     F4 2536   4.266   0.185   5.426
   46DIO     O1 2537   3.853   0.268   5.185
   46DIO    C13 2538   3.758   0.272   5.287
   46DIO     O2 2539   3.757   0.327   5.401
   46DIO    C14 2540   3.629   0.215   5.247
   46DIO    C15 2541   3.563   0.254   5.121
   46DIO     F5 2542   3.625   0.336   5.034
   46DIO    C16 2543   3.432   0.204   5.082
   46DIO    C17 2544   3.356   0.118   5.172
   46DIO    C18 2545   3.425   0.065   5.289
   46DIO    C19 2546   3.556   0.114   5.327
   46DIO     F6 2547   3.619   0.050   5.428
   46DIO    C20 2548   3.215   0.075   5.139
   46DIO     O3 2549   3.146   0.165   5.053
   46DIO    C21 2550   3.102   0.283   5.121
   46DIO    C22 2551   3.013   0.247   5.239
   46DIO    C23 2552   3.094   0.153   5.328
   46DIO     O4 2553   3.138   0.039   5.254
   46DIO    C24 2554   2.880   0.180   5.198
   46DIO    C25 2555   2.790   0.263   5.106
   46DIO    C26 2556   2.751   0.398   5.163
   46DIO     H1 2557   4.472   0.114   5.260
   46DIO     H2 2558   4.430   0.552   5.211
   46DIO     H3 2559   4.254   0.427   5.029
   46DIO     H4 2560   4.002   0.399   5.017
   46DIO     H5 2561   4.003   0.179   5.394
   46DIO     H6 2562   3.394   0.230   4.984
   46DIO     H7 2563   3.382  -0.016   5.347
   46DIO     H8 2564   3.225  -0.018   5.081
   46DIO     H9 2565   3.189   0.341   5.153
   46DIO    H10 2566   3.049   0.345   5.048
   46DIO    H11 2567   2.991   0.338   5.296
   46DIO    H12 2568   3.033   0.116   5.411
   46DIO    H13 2569   3.180   0.204   5.372
   46DIO    H14 2570   2.900   0.084   5.148
   46DIO    H15 2571   2.824   0.156   5.289
   46DIO    H16 2572   2.837   0.276   5.008
   46DIO    H17 2573   2.698   0.205   5.088
   46DIO    H18 2574   2.707   0.388   5.262
   46DIO    H19 2575   2.838   0.465   5.169
   46DIO    H20 2576   2.678   0.446   5.098
   47DIO     F1 2577   6.967   9.676   4.561
   47DIO     C1 2578   6.889   9.648   4.667
   47DIO     C2 2579   6.745   9.660   4.655
   47DIO     C3 2580   6.656   9.631   4.770
   47DIO     C4 2581   6.722   9.587   4.896
   47DIO     C5 2582   6.866   9.576   4.905
   47DIO     F2 2583   6.922   9.532   5.020
   47DIO     C6 2584   6.950   9.605   4.791
   47DIO     F3 2585   7.084   9.596   4.801
   47DIO     C7 2586   6.510   9.644   4.761
   47DIO     C8 2587   6.433   9.721   4.861
   47DIO     C9 2588   6.288   9.733   4.852
   47DIO    C10 2589   6.216   9.661   4.749
   47DIO    C11 2590   6.288   9.591   4.644
   47DIO    C12 2591   6.432   9.581   4.652
   47DIO     F4 2592   6.497   9.510   4.557
   47DIO     O1 2593   6.083   9.696   4.731
   47DIO    C13 2594   5.989   9.601   4.693
   47DIO     O2 2595   5.988   9.475   4.697
   47DIO    C14 2596   5.860   9.661   4.658
   47DIO    C15 2597   5.793   9.761   4.745
   47DIO     F5 2598   5.856   9.806   4.856
   47DIO    C16 2599   5.663   9.816   4.715
   47DIO    C17 2600   5.587   9.769   4.600
   47DIO    C18 2601   5.656   9.684   4.503
   47DIO    C19 2602   5.787   9.630   4.533
   47DIO     F6 2603   5.850   9.564   4.433
   47DIO    C20 2604   5.446   9.817   4.573
   47DIO     O3 2605   5.376   9.859   4.691
   47DIO    C21 2606   5.333   9.749   4.771
   47DIO    C22 2607   5.244   9.655   4.690
   47DIO    C23 2608   5.325   9.612   4.568
   47DIO     O4 2609   5.369   9.726   4.494
   47DIO    C24 2610   5.111   9.720   4.646
   47DIO    C25 2611   5.020   9.771   4.759
   47DIO    C26 2612   4.982   9.663   4.859
   47DIO     H1 2613   6.703   9.690   4.560
   47DIO     H2 2614   6.661   9.556   4.980
   47DIO     H3 2615   6.484   9.774   4.940
   47DIO     H4 2616   6.233   9.796   4.920
   47DIO     H5 2617   6.234   9.542   4.565
   47DIO     H6 2618   5.625   9.895   4.778
   47DIO     H7 2619   5.613   9.664   4.406
   47DIO     H8 2620   5.456   9.908   4.512
   47DIO     H9 2621   5.419   9.695   4.811
   47DIO    H10 2622   5.280   9.789   4.858
   47DIO    H11 2623   5.221   9.566   4.750
   47DIO    H12 2624   5.264   9.551   4.500
   47DIO    H13 2625   5.411   9.551   4.597
   47DIO    H14 2626   5.131   9.805   4.578
   47DIO    H15 2627   5.055   9.647   4.587
   47DIO    H16 2628   5.068   9.855   4.811
   47DIO    H17 2629   4.929   9.811   4.714
   47DIO    H18 2630   4.938   9.576   4.809
   47DIO    H19 2631   5.069   9.630   4.917
   47DIO    H20 2632   4.908   9.703   4.930
   48DIO     F1 2633   5.189   5.801   5.464
   48DIO     C1 2634   5.111   5.815   5.573
   48DIO     C2 2635   4.967   5.821   5.558
   48DIO     C3 2636   4.878   5.839   5.675
   48DIO     C4 2637   4.944   5.847   5.808
   48DIO     C5 2638   5.088   5.840   5.820
   48DIO     F2 2639   5.143   5.843   5.943
   48DIO     C6 2640   5.172   5.823   5.704
   48DIO     F3 2641   5.305   5.818   5.717
   48DIO     C7 2642   4.732   5.847   5.661
   48DIO     C8 2643   4.655   5.956   5.724
   48DIO     C9 2644   4.510   5.964   5.711
   48DIO    C10 2645   4.437   5.858   5.644
   48DIO    C11 2646   4.510   5.753   5.574
   48DIO    C12 2647   4.654   5.747   5.585
   48DIO     F4 2648   4.719   5.646   5.524
   48DIO     O1 2649   4.305   5.884   5.614
   48DIO    C13 2650   4.211   5.782   5.616
   48DIO     O2 2651   4.210   5.667   5.667
   48DIO    C14 2652   4.081   5.823   5.560
   48DIO    C15 2653   4.015   5.949   5.602
   48DIO     F5 2654   4.078   6.033   5.687
   48DIO    C16 2655   3.884   5.989   5.553
   48DIO    C17 2656   3.809   5.901   5.465
   48DIO    C18 2657   3.877   5.785   5.408
   48DIO    C19 2658   4.009   5.747   5.456
   48DIO     F6 2659   4.071   5.647   5.389
   48DIO    C20 2660   3.668   5.935   5.422
   48DIO     O3 2661   3.598   6.019   5.515
   48DIO    C21 2662   3.554   5.948   5.631
   48DIO    C22 2663   3.466   5.830   5.592
   48DIO    C23 2664   3.546   5.744   5.495
   48DIO     O4 2665   3.591   5.821   5.384
   48DIO    C24 2666   3.333   5.874   5.526
   48DIO    C25 2667   3.242   5.963   5.611
   48DIO    C26 2668   3.204   5.903   5.745
   48DIO     H1 2669   4.924   5.813   5.458
   48DIO     H2 2670   4.883   5.849   5.898
   48DIO     H3 2671   4.706   6.035   5.777
   48DIO     H4 2672   4.455   6.048   5.750
   48DIO     H5 2673   4.455   5.678   5.519
   48DIO     H6 2674   3.846   6.086   5.582
   48DIO     H7 2675   3.834   5.730   5.326
   48DIO     H8 2676   3.678   5.996   5.331
   48DIO     H9 2677   3.641   5.914   5.688
   48DIO    H10 2678   3.502   6.019   5.695
   48DIO    H11 2679   3.443   5.771   5.681
   48DIO    H12 2680   3.485   5.662   5.456
   48DIO    H13 2681   3.632   5.699   5.545
   48DIO    H14 2682   3.353   5.926   5.431
   48DIO    H15 2683   3.276   5.783   5.499
   48DIO    H16 2684   3.289   6.061   5.627
   48DIO    H17 2685   3.150   5.983   5.554
   48DIO    H18 2686   3.160   5.803   5.732
   48DIO    H19 2687   3.290   5.894   5.811
   48DIO    H20 2688   3.130   5.966   5.795
   49DIO     F1 2689   9.363   7.091   4.149
   49DIO     C1 2690   9.285   7.174   4.221
   49DIO     C2 2691   9.141   7.169   4.205
   49DIO     C3 2692   9.053   7.260   4.281
   49DIO     C4 2693   9.118   7.354   4.375
   49DIO     C5 2694   9.262   7.357   4.389
   49DIO     F2 2695   9.318   7.441   4.479
   49DIO     C6 2696   9.346   7.268   4.313
   49DIO     F3 2697   9.480   7.272   4.327
   49DIO     C7 2698   8.906   7.257   4.265
   49DIO     C8 2699   8.829   7.380   4.240
   49DIO     C9 2700   8.684   7.378   4.225
   49DIO    C10 2701   8.612   7.253   4.245
   49DIO    C11 2702   8.684   7.129   4.262
   49DIO    C12 2703   8.828   7.132   4.275
   49DIO     F4 2704   8.893   7.015   4.296
   49DIO     O1 2705   8.480   7.253   4.206
   49DIO    C13 2706   8.385   7.178   4.275
   49DIO     O2 2707   8.384   7.126   4.389
   49DIO    C14 2708   8.256   7.172   4.205
   49DIO    C15 2709   8.190   7.294   4.153
   49DIO     F5 2710   8.252   7.413   4.161
   49DIO    C16 2711   8.059   7.291   4.091
   49DIO    C17 2712   7.983   7.167   4.083
   49DIO    C18 2713   8.052   7.043   4.117
   49DIO    C19 2714   8.183   7.046   4.179
   49DIO     F6 2715   8.246   6.927   4.195
   49DIO    C20 2716   7.842   7.164   4.028
   49DIO     O3 2717   7.773   7.288   4.042
   49DIO    C21 2718   7.729   7.312   4.175
   49DIO    C22 2719   7.640   7.198   4.225
   49DIO    C23 2720   7.721   7.069   4.209
   49DIO     O4 2721   7.765   7.053   4.075
   49DIO    C24 2722   7.507   7.187   4.146
   49DIO    C25 2723   7.417   7.310   4.150
   49DIO    C26 2724   7.378   7.354   4.291
   49DIO     H1 2725   9.099   7.097   4.136
   49DIO     H2 2726   9.057   7.416   4.440
   49DIO     H3 2727   8.881   7.475   4.227
   49DIO     H4 2728   8.629   7.467   4.198
   49DIO     H5 2729   8.630   7.036   4.272
   49DIO     H6 2730   8.021   7.382   4.047
   49DIO     H7 2731   8.009   6.946   4.093
   49DIO     H8 2732   7.852   7.149   3.920
   49DIO     H9 2733   7.816   7.324   4.241
   49DIO    H10 2734   7.676   7.408   4.177
   49DIO    H11 2735   7.618   7.213   4.331
   49DIO    H12 2736   7.660   6.982   4.235
   49DIO    H13 2737   7.807   7.069   4.277
   49DIO    H14 2738   7.527   7.163   4.041
   49DIO    H15 2739   7.451   7.102   4.187
   49DIO    H16 2740   7.464   7.394   4.098
   49DIO    H17 2741   7.325   7.287   4.095
   49DIO    H18 2742   7.334   7.271   4.347
   49DIO    H19 2743   7.465   7.392   4.346
   49DIO    H20 2744   7.305   7.435   4.286
   50DIO     F1 2745   5.790   3.498   0.390
   50DIO     C1 2746   5.713   3.593   0.335
   50DIO     C2 2747   5.569   3.576   0.335
   50DIO     C3 2748   5.480   3.678   0.274
   50DIO     C4 2749   5.545   3.798   0.216
   50DIO     C5 2750   5.690   3.812   0.218
   50DIO     F2 2751   5.745   3.924   0.168
   50DIO     C6 2752   5.773   3.711   0.277
   50DIO     F3 2753   5.907   3.725   0.277
   50DIO     C7 2754   5.333   3.662   0.272
   50DIO     C8 2755   5.256   3.679   0.147
   50DIO     C9 2756   5.112   3.664   0.144
   50DIO    C10 2757   5.039   3.642   0.268
   50DIO    C11 2758   5.112   3.617   0.392
   50DIO    C12 2759   5.256   3.630   0.393
   50DIO     F4 2760   5.321   3.612   0.510
   50DIO     O1 2761   4.907   3.605   0.256
   50DIO    C13 2762   4.812   3.645   0.350
   50DIO     O2 2763   4.811   3.736   0.436
   50DIO    C14 2764   4.683   3.577   0.332
   50DIO    C15 2765   4.617   3.569   0.200
   50DIO     F5 2766   4.680   3.615   0.090
   50DIO    C16 2767   4.486   3.508   0.182
   50DIO    C17 2768   4.410   3.460   0.297
   50DIO    C18 2769   4.479   3.452   0.425
   50DIO    C19 2770   4.611   3.511   0.443
   50DIO     F6 2771   4.673   3.487   0.560
   50DIO    C20 2772   4.270   3.407   0.281
   50DIO     O3 2773   4.200   3.462   0.169
   50DIO    C21 2774   4.156   3.595   0.190
   50DIO    C22 2775   4.067   3.605   0.314
   50DIO    C23 2776   4.148   3.548   0.430
   50DIO     O4 2777   4.192   3.415   0.402
   50DIO    C24 2778   3.935   3.527   0.299
   50DIO    C25 2779   3.844   3.571   0.184
   50DIO    C26 2780   3.805   3.718   0.188
   50DIO     H1 2781   5.526   3.488   0.380
   50DIO     H2 2782   5.485   3.880   0.179
   50DIO     H3 2783   5.308   3.698   0.053
   50DIO     H4 2784   5.057   3.668   0.052
   50DIO     H5 2785   5.057   3.596   0.483
   50DIO     H6 2786   4.448   3.497   0.081
   50DIO     H7 2787   4.436   3.397   0.508
   50DIO     H8 2788   4.279   3.300   0.260
   50DIO     H9 2789   4.243   3.661   0.200
   50DIO    H10 2790   4.103   3.628   0.100
   50DIO    H11 2791   4.045   3.710   0.335
   50DIO    H12 2792   4.087   3.543   0.521
   50DIO    H13 2793   4.234   3.612   0.453
   50DIO    H14 2794   3.954   3.420   0.287
   50DIO    H15 2795   3.878   3.537   0.392
   50DIO    H16 2796   3.891   3.549   0.087
   50DIO    H17 2797   3.752   3.511   0.187
   50DIO    H18 2798   3.762   3.745   0.285
   50DIO    H19 2799   3.892   3.783   0.171
   50DIO    H20 2800   3.732   3.740   0.110
   51DIO     F1 2801   6.453   1.690   4.806
   51DIO     C1 2802   6.376   1.581   4.792
   51DIO     C2 2803   6.232   1.594   4.802
   51DIO     C3 2804   6.143   1.477   4.789
   51DIO     C4 2805   6.208   1.346   4.763
   51DIO     C5 2806   6.353   1.336   4.753
   51DIO     F2 2807   6.408   1.216   4.725
   51DIO     C6 2808   6.436   1.452   4.767
   51DIO     F3 2809   6.570   1.441   4.758
   51DIO     C7 2810   5.996   1.488   4.801
   51DIO     C8 2811   5.919   1.399   4.890
   51DIO     C9 2812   5.775   1.409   4.901
   51DIO    C10 2813   5.702   1.502   4.816
   51DIO    C11 2814   5.774   1.596   4.733
   51DIO    C12 2815   5.919   1.587   4.724
   51DIO     F4 2816   5.983   1.672   4.642
   51DIO     O1 2817   5.570   1.524   4.849
   51DIO    C13 2818   5.475   1.549   4.749
   51DIO     O2 2819   5.474   1.528   4.625
   51DIO    C14 2820   5.346   1.592   4.804
   51DIO    C15 2821   5.280   1.519   4.914
   51DIO     F5 2822   5.342   1.415   4.974
   51DIO    C16 2823   5.149   1.556   4.965
   51DIO    C17 2824   5.073   1.664   4.903
   51DIO    C18 2825   5.142   1.748   4.806
   51DIO    C19 2826   5.274   1.712   4.756
   51DIO     F6 2827   5.336   1.802   4.678
   51DIO    C20 2828   4.933   1.696   4.948
   51DIO     O3 2829   4.863   1.585   5.004
   51DIO    C21 2830   4.819   1.491   4.906
   51DIO    C22 2831   4.730   1.559   4.802
   51DIO    C23 2832   4.811   1.675   4.744
   51DIO     O4 2833   4.855   1.763   4.847
   51DIO    C24 2834   4.597   1.612   4.861
   51DIO    C25 2835   4.507   1.507   4.926
   51DIO    C26 2836   4.468   1.393   4.833
   51DIO     H1 2837   6.189   1.692   4.820
   51DIO     H2 2838   6.148   1.259   4.743
   51DIO     H3 2839   5.971   1.327   4.953
   51DIO     H4 2840   5.719   1.350   4.973
   51DIO     H5 2841   5.720   1.668   4.673
   51DIO     H6 2842   5.111   1.503   5.052
   51DIO     H7 2843   5.099   1.842   4.773
   51DIO     H8 2844   4.942   1.769   5.029
   51DIO     H9 2845   4.906   1.445   4.858
   51DIO    H10 2846   4.766   1.411   4.958
   51DIO    H11 2847   4.708   1.488   4.722
   51DIO    H12 2848   4.750   1.733   4.674
   51DIO    H13 2849   4.897   1.638   4.687
   51DIO    H14 2850   4.617   1.690   4.936
   51DIO    H15 2851   4.541   1.660   4.781
   51DIO    H16 2852   4.554   1.466   5.016
   51DIO    H17 2853   4.415   1.557   4.960
   51DIO    H18 2854   4.424   1.430   4.740
   51DIO    H19 2855   4.555   1.331   4.808
   51DIO    H20 2856   4.395   1.328   4.882
   52DIO     F1 2857   5.758   0.698   1.295
   52DIO     C1 2858   5.681   0.654   1.396
   52DIO     C2 2859   5.537   0.668   1.386
   52DIO     C3 2860   5.448   0.623   1.495
   52DIO     C4 2861   5.513   0.561   1.613
   52DIO     C5 2862   5.658   0.549   1.620
   52DIO     F2 2863   5.713   0.489   1.728
   52DIO     C6 2864   5.741   0.594   1.512
   52DIO     F3 2865   5.875   0.583   1.521
   52DIO     C7 2866   5.302   0.637   1.487
   52DIO     C8 2867   5.224   0.698   1.598
   52DIO     C9 2868   5.080   0.712   1.591
   52DIO    C10 2869   5.007   0.656   1.478
   52DIO    C11 2870   5.080   0.601   1.365
   52DIO    C12 2871   5.224   0.590   1.371
   52DIO     F4 2872   5.289   0.535   1.267
   52DIO     O1 2873   4.875   0.693   1.466
   52DIO    C13 2874   4.780   0.604   1.415
   52DIO     O2 2875   4.780   0.479   1.400
   52DIO    C14 2876   4.651   0.669   1.389
   52DIO    C15 2877   4.585   0.755   1.489
   52DIO     F5 2878   4.648   0.784   1.605
   52DIO    C16 2879   4.454   0.814   1.468
   52DIO    C17 2880   4.378   0.784   1.347
   52DIO    C18 2881   4.447   0.714   1.239
   52DIO    C19 2882   4.579   0.656   1.260
   52DIO     F6 2883   4.641   0.605   1.152
   52DIO    C20 2884   4.238   0.836   1.328
   52DIO     O3 2885   4.168   0.859   1.451
   52DIO    C21 2886   4.124   0.739   1.513
   52DIO    C22 2887   4.035   0.658   1.420
   52DIO    C23 2888   4.116   0.634   1.292
   52DIO     O4 2889   4.160   0.757   1.236
   52DIO    C24 2890   3.903   0.729   1.385
   52DIO    C25 2891   3.812   0.763   1.504
   52DIO    C26 2892   3.774   0.642   1.588
   52DIO     H1 2893   5.494   0.712   1.296
   52DIO     H2 2894   5.453   0.518   1.692
   52DIO     H3 2895   5.276   0.739   1.684
   52DIO     H4 2896   5.025   0.764   1.667
   52DIO     H5 2897   5.025   0.565   1.279
   52DIO     H6 2898   4.416   0.883   1.542
   52DIO     H7 2899   4.404   0.708   1.140
   52DIO     H8 2900   4.247   0.934   1.281
   52DIO     H9 2901   4.211   0.680   1.545
   52DIO    H10 2902   4.072   0.767   1.605
   52DIO    H11 2903   4.013   0.561   1.466
   52DIO    H12 2904   4.055   0.583   1.217
   52DIO    H13 2905   4.202   0.569   1.312
   52DIO    H14 2906   3.923   0.823   1.331
   52DIO    H15 2907   3.846   0.665   1.316
   52DIO    H16 2908   3.859   0.838   1.568
   52DIO    H17 2909   3.720   0.809   1.465
   52DIO    H18 2910   3.730   0.563   1.526
   52DIO    H19 2911   3.860   0.600   1.641
   52DIO    H20 2912   3.700   0.671   1.664
   53DIO     F1 2913   2.130   6.249   8.705
   53DIO     C1 2914   2.053   6.186   8.795
   53DIO     C2 2915   1.908   6.201   8.788
   53DIO     C3 2916   1.820   6.136   8.886
   53DIO     C4 2917   1.885   6.052   8.990
   53DIO     C5 2918   2.029   6.039   8.995
   53DIO     F2 2919   2.085   5.959   9.088
   53DIO     C6 2920   2.113   6.105   8.898
   53DIO     F3 2921   2.247   6.092   8.904
   53DIO     C7 2922   1.673   6.151   8.882
   53DIO     C8 2923   1.596   6.190   9.002
   53DIO     C9 2924   1.451   6.204   8.997
   53DIO    C10 2925   1.379   6.171   8.876
   53DIO    C11 2926   1.451   6.140   8.754
   53DIO    C12 2927   1.595   6.128   8.758
   53DIO     F4 2928   1.660   6.094   8.645
   53DIO     O1 2929   1.247   6.210   8.872
   53DIO    C13 2930   1.152   6.133   8.804
   53DIO     O2 2931   1.151   6.014   8.765
   53DIO    C14 2932   1.023   6.202   8.791
   53DIO    C15 2933   0.957   6.266   8.906
   53DIO     F5 2934   1.019   6.272   9.026
   53DIO    C16 2935   0.826   6.328   8.897
   53DIO    C17 2936   0.750   6.323   8.772
   53DIO    C18 2937   0.819   6.275   8.653
   53DIO    C19 2938   0.951   6.214   8.662
   53DIO     F6 2939   1.013   6.186   8.546
   53DIO    C20 2940   0.609   6.377   8.764
   53DIO     O3 2941   0.540   6.376   8.889
   53DIO    C21 2942   0.496   6.246   8.927
   53DIO    C22 2943   0.407   6.185   8.819
   53DIO    C23 2944   0.488   6.186   8.689
   53DIO     O4 2945   0.532   6.318   8.659
   53DIO    C24 2946   0.274   6.262   8.799
   53DIO    C25 2947   0.184   6.271   8.923
   53DIO    C26 2948   0.145   6.136   8.981
   53DIO     H1 2949   1.866   6.262   8.709
   53DIO     H2 2950   1.825   5.994   9.059
   53DIO     H3 2951   1.648   6.213   9.094
   53DIO     H4 2952   1.396   6.240   9.083
   53DIO     H5 2953   1.397   6.121   8.663
   53DIO     H6 2954   0.788   6.382   8.983
   53DIO     H7 2955   0.776   6.289   8.555
   53DIO     H8 2956   0.619   6.483   8.737
   53DIO     H9 2957   0.583   6.182   8.946
   53DIO    H10 2958   0.443   6.255   9.022
   53DIO    H11 2959   0.385   6.081   8.845
   53DIO    H12 2960   0.427   6.152   8.606
   53DIO    H13 2961   0.574   6.119   8.696
   53DIO    H14 2962   0.294   6.364   8.764
   53DIO    H15 2963   0.218   6.212   8.719
   53DIO    H16 2964   0.231   6.332   9.000
   53DIO    H17 2965   0.092   6.324   8.894
   53DIO    H18 2966   0.101   6.071   8.905
   53DIO    H19 2967   0.232   6.085   9.025
   53DIO    H20 2968   0.072   6.150   9.061
   54DIO     F1 2969   6.582   3.176   1.326
   54DIO     C1 2970   6.504   3.070   1.299
   54DIO     C2 2971   6.360   3.082   1.311
   54DIO     C3 2972   6.271   2.966   1.285
   54DIO     C4 2973   6.337   2.840   1.243
   54DIO     C5 2974   6.481   2.831   1.232
   54DIO     F2 2975   6.536   2.715   1.190
   54DIO     C6 2976   6.565   2.945   1.259
   54DIO     F3 2977   6.698   2.935   1.250
   54DIO     C7 2978   6.125   2.976   1.297
   54DIO     C8 2979   6.048   2.877   1.376
   54DIO     C9 2980   5.903   2.887   1.388
   54DIO    C10 2981   5.830   2.988   1.314
   54DIO    C11 2982   5.903   3.092   1.242
   54DIO    C12 2983   6.047   3.084   1.232
   54DIO     F4 2984   6.112   3.178   1.160
   54DIO     O1 2985   5.698   3.006   1.349
   54DIO    C13 2986   5.604   3.043   1.253
   54DIO     O2 2987   5.603   3.037   1.127
   54DIO    C14 2988   5.474   3.079   1.313
   54DIO    C15 2989   5.408   2.994   1.414
   54DIO     F5 2990   5.471   2.884   1.461
   54DIO    C16 2991   5.277   3.025   1.468
   54DIO    C17 2992   5.202   3.139   1.419
   54DIO    C18 2993   5.270   3.234   1.333
   54DIO    C19 2994   5.402   3.204   1.279
   54DIO     F6 2995   5.464   3.303   1.211
   54DIO    C20 2996   5.061   3.166   1.467
   54DIO     O3 2997   4.991   3.049   1.511
   54DIO    C21 2998   4.947   2.968   1.402
   54DIO    C22 2999   4.859   3.047   1.307
   54DIO    C23 3000   4.939   3.169   1.262
   54DIO     O4 3001   4.984   3.244   1.375
   54DIO    C24 3002   4.726   3.092   1.372
   54DIO    C25 3003   4.635   2.980   1.424
   54DIO    C26 3004   4.597   2.878   1.318
   54DIO     H1 3005   6.317   3.177   1.340
   54DIO     H2 3006   6.276   2.755   1.213
   54DIO     H3 3007   6.099   2.799   1.430
   54DIO     H4 3008   5.848   2.819   1.452
   54DIO     H5 3009   5.848   3.170   1.192
   54DIO     H6 3010   5.239   2.963   1.549
   54DIO     H7 3011   5.227   3.331   1.311
   54DIO     H8 3012   5.071   3.229   1.557
   54DIO     H9 3013   5.034   2.927   1.349
   54DIO    H10 3014   4.895   2.882   1.444
   54DIO    H11 3015   4.836   2.986   1.219
   54DIO    H12 3016   4.878   3.235   1.200
   54DIO    H13 3017   5.025   3.138   1.202
   54DIO    H14 3018   4.746   3.161   1.455
   54DIO    H15 3019   4.669   3.150   1.297
   54DIO    H16 3020   4.682   2.930   1.509
   54DIO    H17 3021   4.543   3.026   1.463
   54DIO    H18 3022   4.553   2.926   1.230
   54DIO    H19 3023   4.683   2.819   1.286
   54DIO    H20 3024   4.523   2.808   1.359
   55DIO     F1 3025   8.556   4.815   7.172
   55DIO     C1 3026   8.478   4.852   7.276
   55DIO     C2 3027   8.334   4.855   7.259
   55DIO     C3 3028   8.246   4.898   7.370
   55DIO     C4 3029   8.311   4.934   7.498
   55DIO     C5 3030   8.455   4.930   7.512
   55DIO     F2 3031   8.511   4.960   7.631
   55DIO     C6 3032   8.539   4.889   7.401
   55DIO     F3 3033   8.673   4.886   7.416
   55DIO     C7 3034   8.099   4.903   7.354
   55DIO     C8 3035   8.022   5.023   7.392
   55DIO     C9 3036   7.877   5.028   7.378
   55DIO    C10 3037   7.805   4.910   7.335
   55DIO    C11 3038   7.877   4.792   7.290
   55DIO    C12 3039   8.021   4.789   7.302
   55DIO     F4 3040   8.086   4.677   7.264
   55DIO     O1 3041   7.673   4.929   7.301
   55DIO    C13 3042   7.578   4.829   7.324
   55DIO     O2 3043   7.577   4.728   7.399
   55DIO    C14 3044   7.449   4.858   7.261
   55DIO    C15 3045   7.383   4.989   7.275
   55DIO     F5 3046   7.445   5.090   7.339
   55DIO    C16 3047   7.252   5.018   7.219
   55DIO    C17 3048   7.176   4.913   7.151
   55DIO    C18 3049   7.245   4.788   7.121
   55DIO    C19 3050   7.376   4.760   7.176
   55DIO     F6 3051   7.439   4.649   7.132
   55DIO    C20 3052   7.035   4.937   7.102
   55DIO     O3 3053   6.966   5.039   7.175
   55DIO    C21 3054   6.922   4.995   7.303
   55DIO    C22 3055   6.833   4.871   7.290
   55DIO    C23 3056   6.914   4.766   7.214
   55DIO     O4 3057   6.958   4.817   7.089
   55DIO    C24 3058   6.700   4.899   7.217
   55DIO    C25 3059   6.610   5.005   7.280
   55DIO    C26 3060   6.571   4.975   7.424
   55DIO     H1 3061   8.292   4.826   7.164
   55DIO     H2 3062   8.250   4.956   7.585
   55DIO     H3 3063   8.074   5.112   7.427
   55DIO     H4 3064   7.822   5.119   7.398
   55DIO     H5 3065   7.823   4.707   7.252
   55DIO     H6 3066   7.214   5.119   7.225
   55DIO     H7 3067   7.202   4.716   7.052
   55DIO     H8 3068   7.045   4.977   7.000
   55DIO     H9 3069   7.009   4.973   7.366
   55DIO    H10 3070   6.869   5.077   7.351
   55DIO    H11 3071   6.811   4.833   7.390
   55DIO    H12 3072   6.853   4.678   7.194
   55DIO    H13 3073   7.000   4.733   7.273
   55DIO    H14 3074   6.720   4.930   7.113
   55DIO    H15 3075   6.644   4.805   7.210
   55DIO    H16 3076   6.657   5.104   7.275
   55DIO    H17 3077   6.518   5.012   7.220
   55DIO    H18 3078   6.527   4.875   7.433
   55DIO    H19 3079   6.658   4.981   7.491
   55DIO    H20 3080   6.498   5.048   7.459
   56DIO     F1 3081   9.579   1.193   3.625
   56DIO     C1 3082   9.502   1.295   3.585
   56DIO     C2 3083   9.358   1.279   3.582
   56DIO     C3 3084   9.269   1.388   3.536
   56DIO     C4 3085   9.334   1.515   3.496
   56DIO     C5 3086   9.479   1.529   3.500
   56DIO     F2 3087   9.534   1.647   3.466
   56DIO     C6 3088   9.562   1.420   3.544
   56DIO     F3 3089   9.696   1.434   3.546
   56DIO     C7 3090   9.122   1.373   3.532
   56DIO     C8 3091   9.045   1.407   3.410
   56DIO     C9 3092   8.901   1.392   3.406
   56DIO    C10 3093   8.828   1.353   3.525
   56DIO    C11 3094   8.901   1.311   3.644
   56DIO    C12 3095   9.045   1.323   3.647
   56DIO     F4 3096   9.110   1.289   3.761
   56DIO     O1 3097   8.696   1.318   3.508
   56DIO    C13 3098   8.601   1.344   3.606
   56DIO     O2 3099   8.600   1.423   3.705
   56DIO    C14 3100   8.472   1.280   3.580
   56DIO    C15 3101   8.406   1.290   3.448
   56DIO     F5 3102   8.469   1.351   3.345
   56DIO    C16 3103   8.275   1.233   3.421
   56DIO    C17 3104   8.199   1.169   3.528
   56DIO    C18 3105   8.268   1.143   3.654
   56DIO    C19 3106   8.400   1.199   3.680
   56DIO     F6 3107   8.462   1.158   3.792
   56DIO    C20 3108   8.059   1.119   3.505
   56DIO     O3 3109   7.989   1.189   3.401
   56DIO    C21 3110   7.945   1.318   3.441
   56DIO    C22 3111   7.856   1.310   3.565
   56DIO    C23 3112   7.937   1.237   3.673
   56DIO     O4 3113   7.981   1.110   3.625
   56DIO    C24 3114   7.724   1.235   3.539
   56DIO    C25 3115   7.633   1.295   3.432
   56DIO    C26 3116   7.594   1.440   3.457
   56DIO     H1 3117   9.315   1.184   3.615
   56DIO     H2 3118   9.274   1.601   3.471
   56DIO     H3 3119   9.097   1.438   3.321
   56DIO     H4 3120   8.846   1.409   3.315
   56DIO     H5 3121   8.846   1.277   3.731
   56DIO     H6 3122   8.237   1.236   3.320
   56DIO     H7 3123   8.225   1.077   3.728
   56DIO     H8 3124   8.068   1.016   3.469
   56DIO     H9 3125   8.032   1.382   3.461
   56DIO    H10 3126   7.892   1.363   3.357
   56DIO    H11 3127   7.834   1.411   3.601
   56DIO    H12 3128   7.876   1.220   3.762
   56DIO    H13 3129   8.023   1.297   3.704
   56DIO    H14 3130   7.743   1.130   3.512
   56DIO    H15 3131   7.667   1.232   3.633
   56DIO    H16 3132   7.680   1.287   3.333
   56DIO    H17 3133   7.541   1.235   3.426
   56DIO    H18 3134   7.551   1.452   3.557
   56DIO    H19 3135   7.681   1.506   3.449
   56DIO    H20 3136   7.521   1.473   3.383
   57DIO     F1 3137   3.158   1.781   6.445
   57DIO     C1 3138   3.081   1.891   6.446
   57DIO     C2 3139   2.937   1.877   6.437
   57DIO     C3 3140   2.848   1.995   6.436
   57DIO     C4 3141   2.913   2.128   6.447
   57DIO     C5 3142   3.058   2.139   6.456
   57DIO     F2 3143   3.113   2.261   6.470
   57DIO     C6 3144   3.141   2.022   6.456
   57DIO     F3 3145   3.275   2.034   6.463
   57DIO     C7 3146   2.701   1.983   6.426
   57DIO     C8 3147   2.624   2.060   6.327
   57DIO     C9 3148   2.480   2.049   6.317
   57DIO    C10 3149   2.407   1.967   6.413
   57DIO    C11 3150   2.479   1.883   6.507
   57DIO    C12 3151   2.624   1.893   6.515
   57DIO     F4 3152   2.688   1.819   6.606
   57DIO     O1 3153   2.275   1.941   6.383
   57DIO    C13 3154   2.180   1.928   6.485
   57DIO     O2 3155   2.179   1.963   6.606
   57DIO    C14 3156   2.051   1.879   6.435
   57DIO    C15 3157   1.985   1.938   6.317
   57DIO     F5 3158   2.047   2.034   6.246
   57DIO    C16 3159   1.854   1.896   6.271
   57DIO    C17 3160   1.778   1.796   6.345
   57DIO    C18 3161   1.847   1.724   6.452
   57DIO    C19 3162   1.979   1.765   6.497
   57DIO     F6 3163   2.041   1.685   6.586
   57DIO    C20 3164   1.638   1.758   6.305
   57DIO     O3 3165   1.568   1.862   6.236
   57DIO    C21 3166   1.524   1.966   6.322
   57DIO    C22 3167   1.435   1.912   6.433
   57DIO    C23 3168   1.516   1.803   6.505
   57DIO     O4 3169   1.560   1.704   6.413
   57DIO    C24 3170   1.302   1.852   6.381
   57DIO    C25 3171   1.212   1.949   6.304
   57DIO    C26 3172   1.173   2.073   6.383
   57DIO     H1 3173   2.894   1.777   6.431
   57DIO     H2 3174   2.853   2.217   6.457
   57DIO     H3 3175   2.676   2.124   6.256
   57DIO     H4 3176   2.424   2.099   6.239
   57DIO     H5 3177   2.425   1.818   6.574
   57DIO     H6 3178   1.816   1.937   6.179
   57DIO     H7 3179   1.804   1.634   6.495
   57DIO     H8 3180   1.647   1.677   6.233
   57DIO     H9 3181   1.611   2.018   6.364
   57DIO    H10 3182   1.471   2.040   6.261
   57DIO    H11 3183   1.413   1.992   6.505
   57DIO    H12 3184   1.455   1.754   6.581
   57DIO    H13 3185   1.602   1.847   6.557
   57DIO    H14 3186   1.322   1.766   6.316
   57DIO    H15 3187   1.246   1.814   6.467
   57DIO    H16 3188   1.259   1.979   6.210
   57DIO    H17 3189   1.120   1.896   6.277
   57DIO    H18 3190   1.129   2.047   6.480
   57DIO    H19 3191   1.260   2.138   6.401
   57DIO    H20 3192   1.100   2.132   6.327
   58DIO     F1 3193   3.588   8.715   5.947
   58DIO     C1 3194   3.510   8.728   5.838
   58DIO     C2 3195   3.366   8.718   5.851
   58DIO     C3 3196   3.277   8.730   5.734
   58DIO     C4 3197   3.343   8.755   5.603
   58DIO     C5 3198   3.487   8.765   5.592
   58DIO     F2 3199   3.543   8.792   5.473
   58DIO     C6 3200   3.571   8.752   5.709
   58DIO     F3 3201   3.705   8.761   5.698
   58DIO     C7 3202   3.131   8.719   5.745
   58DIO     C8 3203   3.054   8.628   5.657
   58DIO     C9 3204   2.909   8.618   5.668
   58DIO    C10 3205   2.837   8.704   5.759
   58DIO    C11 3206   2.909   8.788   5.853
   58DIO    C12 3207   3.053   8.797   5.843
   58DIO     F4 3208   3.118   8.880   5.927
   58DIO     O1 3209   2.704   8.671   5.781
   58DIO    C13 3210   2.610   8.771   5.805
   58DIO     O2 3211   2.609   8.895   5.784
   58DIO    C14 3212   2.481   8.716   5.849
   58DIO    C15 3213   2.414   8.605   5.777
   58DIO     F5 3214   2.477   8.545   5.674
   58DIO    C16 3215   2.284   8.555   5.814
   58DIO    C17 3216   2.208   8.618   5.922
   58DIO    C18 3217   2.277   8.716   6.005
   58DIO    C19 3218   2.408   8.765   5.968
   58DIO     F6 3219   2.471   8.845   6.058
   58DIO    C20 3220   2.067   8.574   5.955
   58DIO     O3 3221   1.997   8.516   5.844
   58DIO    C21 3222   1.954   8.613   5.750
   58DIO    C22 3223   1.865   8.718   5.816
   58DIO    C23 3224   1.946   8.777   5.932
   58DIO     O4 3225   1.990   8.675   6.020
   58DIO    C24 3226   1.732   8.659   5.869
   58DIO    C25 3227   1.641   8.594   5.765
   58DIO    C26 3228   1.603   8.685   5.650
   58DIO     H1 3229   3.324   8.701   5.950
   58DIO     H2 3230   3.282   8.775   5.515
   58DIO     H3 3231   3.105   8.565   5.586
   58DIO     H4 3232   2.854   8.545   5.609
   58DIO     H5 3233   2.855   8.848   5.924
   58DIO     H6 3234   2.246   8.467   5.763
   58DIO     H7 3235   2.234   8.750   6.099
   58DIO     H8 3236   2.077   8.493   6.028
   58DIO     H9 3237   2.040   8.661   5.703
   58DIO    H10 3238   1.901   8.561   5.670
   58DIO    H11 3239   1.842   8.797   5.744
   58DIO    H12 3240   1.885   8.847   5.989
   58DIO    H13 3241   2.032   8.834   5.894
   58DIO    H14 3242   1.752   8.586   5.948
   58DIO    H15 3243   1.676   8.740   5.917
   58DIO    H16 3244   1.689   8.503   5.725
   58DIO    H17 3245   1.550   8.560   5.815
   58DIO    H18 3246   1.559   8.779   5.687
   58DIO    H19 3247   1.690   8.710   5.588
   58DIO    H20 3248   1.529   8.636   5.586
   59DIO     F1 3249   5.239   5.938   9.564
   59DIO     C1 3250   5.162   5.941   9.674
   59DIO     C2 3251   5.018   5.949   9.659
   59DIO     C3 3252   4.929   5.955   9.777
   59DIO     C4 3253   4.994   5.950   9.910
   59DIO     C5 3254   5.139   5.941   9.922
   59DIO     F2 3255   5.194   5.933  10.045
   59DIO     C6 3256   5.222   5.937   9.805
   59DIO     F3 3257   5.356   5.930   9.818
   59DIO     C7 3258   4.783   5.965   9.765
   59DIO     C8 3259   4.705   6.067   9.838
   59DIO     C9 3260   4.561   6.076   9.826
   59DIO    C10 3261   4.488   5.977   9.748
   59DIO    C11 3262   4.561   5.880   9.669
   59DIO    C12 3263   4.705   5.873   9.679
   59DIO     F4 3264   4.770   5.778   9.608
   59DIO     O1 3265   4.356   6.006   9.722
   59DIO    C13 3266   4.261   5.904   9.713
   59DIO     O2 3267   4.261   5.785   9.752
   59DIO    C14 3268   4.132   5.951   9.661
   59DIO    C15 3269   4.066   6.072   9.716
   59DIO     F5 3270   4.129   6.147   9.809
   59DIO    C16 3271   3.935   6.116   9.671
   59DIO    C17 3272   3.859   6.038   9.574
   59DIO    C18 3273   3.928   5.929   9.507
   59DIO    C19 3274   4.060   5.885   9.551
   59DIO     F6 3275   4.122   5.793   9.474
   59DIO    C20 3276   3.719   6.076   9.535
   59DIO     O3 3277   3.649   6.150   9.636
   59DIO    C21 3278   3.605   6.068   9.744
   59DIO    C22 3279   3.516   5.955   9.694
   59DIO    C23 3280   3.597   5.879   9.589
   59DIO     O4 3281   3.641   5.967   9.486
   59DIO    C24 3282   3.384   6.005   9.633
   59DIO    C25 3283   3.293   6.085   9.726
   59DIO    C26 3284   3.255   6.012   9.853
   59DIO     H1 3285   4.975   5.951   9.560
   59DIO     H2 3286   4.934   5.944  10.000
   59DIO     H3 3287   4.757   6.140   9.899
   59DIO     H4 3288   4.506   6.156   9.873
   59DIO     H5 3289   4.506   5.810   9.606
   59DIO     H6 3290   3.897   6.210   9.709
   59DIO     H7 3291   3.885   5.881   9.419
   59DIO     H8 3292   3.728   6.146   9.451
   59DIO     H9 3293   3.692   6.028   9.798
   59DIO    H10 3294   3.553   6.132   9.816
   59DIO    H11 3295   3.494   5.887   9.777
   59DIO    H12 3296   3.536   5.801   9.542
   59DIO    H13 3297   3.683   5.829   9.634
   59DIO    H14 3298   3.404   6.066   9.544
   59DIO    H15 3299   3.327   5.917   9.597
   59DIO    H16 3300   3.340   6.181   9.752
   59DIO    H17 3301   3.201   6.111   9.671
   59DIO    H18 3302   3.211   5.914   9.831
   59DIO    H19 3303   3.341   5.997   9.919
   59DIO    H20 3304   3.181   6.070   9.910
   60DIO     F1 3305   4.505   6.737   9.405
   60DIO     C1 3306   4.428   6.679   9.312
   60DIO     C2 3307   4.284   6.679   9.328
   60DIO     C3 3308   4.195   6.615   9.229
   60DIO     C4 3309   4.260   6.553   9.111
   60DIO     C5 3310   4.405   6.555   9.097
   60DIO     F2 3311   4.460   6.501   8.986
   60DIO     C6 3312   4.488   6.617   9.196
   60DIO     F3 3313   4.622   6.617   9.182
   60DIO     C7 3314   4.048   6.613   9.245
   60DIO     C8 3315   3.971   6.488   9.232
   60DIO     C9 3316   3.827   6.486   9.247
   60DIO    C10 3317   3.754   6.610   9.265
   60DIO    C11 3318   3.827   6.735   9.286
   60DIO    C12 3319   3.971   6.736   9.273
   60DIO     F4 3320   4.036   6.853   9.287
   60DIO     O1 3321   3.622   6.599   9.303
   60DIO    C13 3322   3.527   6.692   9.260
   60DIO     O2 3323   3.526   6.775   9.165
   60DIO    C14 3324   3.398   6.677   9.328
   60DIO    C15 3325   3.332   6.545   9.341
   60DIO     F5 3326   3.395   6.433   9.298
   60DIO    C16 3327   3.201   6.529   9.401
   60DIO    C17 3328   3.125   6.645   9.446
   60DIO    C18 3329   3.194   6.774   9.450
   60DIO    C19 3330   3.326   6.789   9.391
   60DIO     F6 3331   3.388   6.907   9.411
   60DIO    C20 3332   2.985   6.631   9.499
   60DIO     O3 3333   2.915   6.517   9.449
   60DIO    C21 3334   2.871   6.534   9.314
   60DIO    C22 3335   2.782   6.657   9.301
   60DIO    C23 3336   2.863   6.776   9.354
   60DIO     O4 3337   2.907   6.751   9.487
   60DIO    C24 3338   2.650   6.645   9.379
   60DIO    C25 3339   2.559   6.528   9.339
   60DIO    C26 3340   2.520   6.528   9.191
   60DIO     H1 3341   4.241   6.728   9.416
   60DIO     H2 3342   4.200   6.514   9.030
   60DIO     H3 3343   4.023   6.394   9.217
   60DIO     H4 3344   3.772   6.393   9.247
   60DIO     H5 3345   3.772   6.826   9.304
   60DIO     H6 3346   3.163   6.428   9.416
   60DIO     H7 3347   3.151   6.858   9.502
   60DIO     H8 3348   2.994   6.614   9.607
   60DIO     H9 3349   2.958   6.542   9.248
   60DIO    H10 3350   2.818   6.443   9.284
   60DIO    H11 3351   2.760   6.675   9.195
   60DIO    H12 3352   2.802   6.866   9.355
   60DIO    H13 3353   2.949   6.796   9.289
   60DIO    H14 3354   2.669   6.636   9.487
   60DIO    H15 3355   2.593   6.738   9.366
   60DIO    H16 3356   2.606   6.433   9.364
   60DIO    H17 3357   2.467   6.534   9.399
   60DIO    H18 3358   2.477   6.624   9.162
   60DIO    H19 3359   2.607   6.509   9.127
   60DIO    H20 3360   2.447   6.450   9.172
   61DIO     F1 3361   3.479   7.055   8.242
   61DIO     C1 3362   3.402   7.116   8.333
   61DIO     C2 3363   3.258   7.115   8.316
   61DIO     C3 3364   3.169   7.183   8.413
   61DIO     C4 3365   3.234   7.250   8.528
   61DIO     C5 3366   3.379   7.250   8.543
   61DIO     F2 3367   3.434   7.308   8.651
   61DIO     C6 3368   3.462   7.183   8.446
   61DIO     F3 3369   3.596   7.184   8.460
   61DIO     C7 3370   3.022   7.184   8.397
   61DIO     C8 3371   2.945   7.311   8.404
   61DIO     C9 3372   2.801   7.312   8.389
   61DIO    C10 3373   2.728   7.187   8.376
   61DIO    C11 3374   2.800   7.062   8.361
   61DIO    C12 3375   2.945   7.061   8.374
   61DIO     F4 3376   3.009   6.943   8.365
   61DIO     O1 3377   2.596   7.196   8.338
   61DIO    C13 3378   2.501   7.106   8.386
   61DIO     O2 3379   2.500   7.026   8.483
   61DIO    C14 3380   2.372   7.118   8.317
   61DIO    C15 3381   2.306   7.249   8.298
   61DIO     F5 3382   2.368   7.362   8.336
   61DIO    C16 3383   2.175   7.262   8.237
   61DIO    C17 3384   2.099   7.144   8.197
   61DIO    C18 3385   2.168   7.016   8.199
   61DIO    C19 3386   2.300   7.003   8.259
   61DIO     F6 3387   2.362   6.884   8.244
   61DIO    C20 3388   1.959   7.156   8.144
   61DIO     O3 3389   1.889   7.272   8.189
   61DIO    C21 3390   1.845   7.261   8.324
   61DIO    C22 3391   1.756   7.138   8.343
   61DIO    C23 3392   1.837   7.018   8.295
   61DIO     O4 3393   1.881   7.037   8.161
   61DIO    C24 3394   1.623   7.147   8.264
   61DIO    C25 3395   1.533   7.266   8.300
   61DIO    C26 3396   1.494   7.272   8.447
   61DIO     H1 3397   3.215   7.063   8.231
   61DIO     H2 3398   3.174   7.293   8.607
   61DIO     H3 3399   2.997   7.405   8.416
   61DIO     H4 3400   2.745   7.405   8.386
   61DIO     H5 3401   2.746   6.969   8.346
   61DIO     H6 3402   2.137   7.362   8.218
   61DIO     H7 3403   2.125   6.929   8.150
   61DIO     H8 3404   1.968   7.169   8.035
   61DIO     H9 3405   1.932   7.256   8.391
   61DIO    H10 3406   1.792   7.353   8.350
   61DIO    H11 3407   1.734   7.126   8.449
   61DIO    H12 3408   1.776   6.927   8.297
   61DIO    H13 3409   1.923   7.000   8.360
   61DIO    H14 3410   1.643   7.151   8.156
   61DIO    H15 3411   1.567   7.055   8.281
   61DIO    H16 3412   1.580   7.360   8.270
   61DIO    H17 3413   1.441   7.258   8.240
   61DIO    H18 3414   1.450   7.177   8.480
   61DIO    H19 3415   1.581   7.294   8.510
   61DIO    H20 3416   1.421   7.351   8.463
   62DIO     F1 3417   7.574   8.961   4.859
   62DIO     C1 3418   7.497   9.038   4.938
   62DIO     C2 3419   7.353   9.034   4.921
   62DIO     C3 3420   7.264   9.119   5.004
   62DIO     C4 3421   7.329   9.205   5.105
   62DIO     C5 3422   7.474   9.207   5.119
   62DIO     F2 3423   7.529   9.284   5.215
   62DIO     C6 3424   7.557   9.124   5.037
   62DIO     F3 3425   7.691   9.128   5.050
   62DIO     C7 3426   7.117   9.117   4.988
   62DIO     C8 3427   7.040   9.242   4.972
   62DIO     C9 3428   6.896   9.240   4.957
   62DIO    C10 3429   6.823   9.115   4.967
   62DIO    C11 3430   6.895   8.990   4.975
   62DIO    C12 3431   7.040   8.991   4.988
   62DIO     F4 3432   7.104   8.874   5.001
   62DIO     O1 3433   6.691   9.118   4.928
   62DIO    C13 3434   6.596   9.037   4.991
   62DIO     O2 3435   6.595   8.977   5.102
   62DIO    C14 3436   6.467   9.037   4.921
   62DIO    C15 3437   6.401   9.162   4.879
   62DIO     F5 3438   6.463   9.281   4.896
   62DIO    C16 3439   6.270   9.164   4.816
   62DIO    C17 3440   6.194   9.041   4.799
   62DIO    C18 3441   6.263   8.915   4.824
   62DIO    C19 3442   6.395   8.913   4.885
   62DIO     F6 3443   6.457   8.793   4.892
   62DIO    C20 3444   6.054   9.043   4.744
   62DIO     O3 3445   5.984   9.165   4.768
   62DIO    C21 3446   5.940   9.179   4.902
   62DIO    C22 3447   5.851   9.062   4.943
   62DIO    C23 3448   5.932   8.934   4.918
   62DIO     O4 3449   5.976   8.928   4.783
   62DIO    C24 3450   5.718   9.056   4.864
   62DIO    C25 3451   5.628   9.179   4.878
   62DIO    C26 3452   5.589   9.212   5.021
   62DIO     H1 3453   7.310   8.967   4.847
   62DIO     H2 3454   7.269   9.262   5.175
   62DIO     H3 3455   7.092   9.337   4.966
   62DIO     H4 3456   6.840   9.331   4.937
   62DIO     H5 3457   6.841   8.896   4.977
   62DIO     H6 3458   6.232   9.259   4.780
   62DIO     H7 3459   6.220   8.821   4.792
   62DIO     H8 3460   6.063   9.036   4.635
   62DIO     H9 3461   6.027   9.186   4.969
   62DIO    H10 3462   5.887   9.274   4.911
   62DIO    H11 3463   5.829   9.068   5.050
   62DIO    H12 3464   5.871   8.845   4.937
   62DIO    H13 3465   6.018   8.929   4.985
   62DIO    H14 3466   5.738   9.040   4.757
   62DIO    H15 3467   5.662   8.968   4.898
   62DIO    H16 3468   5.675   9.266   4.831
   62DIO    H17 3469   5.536   9.160   4.820
   62DIO    H18 3470   5.545   9.125   5.071
   62DIO    H19 3471   5.676   9.245   5.079
   62DIO    H20 3472   5.516   9.293   5.022
   63DIO     F1 3473   3.817   9.820   8.358
   63DIO     C1 3474   3.740   9.793   8.252
   63DIO     C2 3475   3.596   9.788   8.268
   63DIO     C3 3476   3.507   9.756   8.154
   63DIO     C4 3477   3.572   9.731   8.024
   63DIO     C5 3478   3.717   9.737   8.010
   63DIO     F2 3479   3.772   9.718   7.889
   63DIO     C6 3480   3.800   9.768   8.123
   63DIO     F3 3481   3.934   9.771   8.110
   63DIO     C7 3482   3.361   9.750   8.169
   63DIO     C8 3483   3.283   9.633   8.120
   63DIO     C9 3484   3.139   9.627   8.134
   63DIO    C10 3485   3.066   9.741   8.188
   63DIO    C11 3486   3.139   9.853   8.244
   63DIO    C12 3487   3.283   9.858   8.232
   63DIO     F4 3488   3.348   9.966   8.280
   63DIO     O1 3489   2.934   9.719   8.220
   63DIO    C13 3490   2.839   9.820   8.206
   63DIO     O2 3491   2.839   9.928   8.141
   63DIO    C14 3492   2.710   9.786   8.267
   63DIO    C15 3493   2.644   9.656   8.240
   63DIO     F5 3494   2.707   9.562   8.167
   63DIO    C16 3495   2.513   9.623   8.294
   63DIO    C17 3496   2.437   9.721   8.371
   63DIO    C18 3497   2.506   9.843   8.412
   63DIO    C19 3498   2.638   9.875   8.360
   63DIO     F6 3499   2.700   9.982   8.414
   63DIO    C20 3500   2.297   9.692   8.417
   63DIO     O3 3501   2.227   9.597   8.336
   63DIO    C21 3502   2.183   9.653   8.212
   63DIO    C22 3503   2.094   9.775   8.236
   63DIO    C23 3504   2.175   9.873   8.321
   63DIO     O4 3505   2.219   9.810   8.441
   63DIO    C24 3506   1.962   9.740   8.307
   63DIO    C25 3507   1.871   9.640   8.234
   63DIO    C26 3508   1.833   9.684   8.093
   63DIO     H1 3509   3.553   9.809   8.366
   63DIO     H2 3510   3.512   9.717   7.935
   63DIO     H3 3511   3.335   9.548   8.078
   63DIO     H4 3512   3.084   9.538   8.106
   63DIO     H5 3513   3.084   9.935   8.288
   63DIO     H6 3514   2.475   9.522   8.278
   63DIO     H7 3515   2.463   9.908   8.487
   63DIO     H8 3516   2.306   9.644   8.515
   63DIO     H9 3517   2.270   9.680   8.151
   63DIO    H10 3518   2.131   9.575   8.157
   63DIO    H11 3519   2.072   9.823   8.140
   63DIO    H12 3520   2.114   9.959   8.349
   63DIO    H13 3521   2.261   9.911   8.265
   63DIO    H14 3522   1.982   9.700   8.407
   63DIO    H15 3523   1.905   9.833   8.321
   63DIO    H16 3524   1.918   9.542   8.230
   63DIO    H17 3525   1.779   9.628   8.293
   63DIO    H18 3526   1.789   9.784   8.093
   63DIO    H19 3527   1.919   9.684   8.026
   63DIO    H20 3528   1.759   9.614   8.051
   64DIO     F1 3529   5.387   2.443   4.259
   64DIO     C1 3530   5.309   2.426   4.368
   64DIO     C2 3531   5.165   2.437   4.355
   64DIO     C3 3532   5.076   2.422   4.472
   64DIO     C4 3533   5.142   2.393   4.602
   64DIO     C5 3534   5.286   2.382   4.613
   64DIO     F2 3535   5.342   2.352   4.732
   64DIO     C6 3536   5.370   2.399   4.496
   64DIO     F3 3537   5.504   2.390   4.508
   64DIO     C7 3538   4.930   2.433   4.461
   64DIO     C8 3539   4.853   2.521   4.552
   64DIO     C9 3540   4.708   2.532   4.542
   64DIO    C10 3541   4.636   2.449   4.448
   64DIO    C11 3542   4.708   2.367   4.352
   64DIO    C12 3543   4.852   2.358   4.361
   64DIO     F4 3544   4.917   2.278   4.274
   64DIO     O1 3545   4.503   2.482   4.427
   64DIO    C13 3546   4.409   2.383   4.400
   64DIO     O2 3547   4.408   2.258   4.417
   64DIO    C14 3548   4.280   2.439   4.358
   64DIO    C15 3549   4.214   2.547   4.433
   64DIO     F5 3550   4.276   2.605   4.537
   64DIO    C16 3551   4.083   2.599   4.397
   64DIO    C17 3552   4.007   2.539   4.287
   64DIO    C18 3553   4.076   2.444   4.201
   64DIO    C19 3554   4.207   2.393   4.237
   64DIO     F6 3555   4.270   2.316   4.145
   64DIO    C20 3556   3.866   2.584   4.256
   64DIO     O3 3557   3.797   2.639   4.368
   64DIO    C21 3558   3.753   2.539   4.460
   64DIO    C22 3559   3.664   2.436   4.390
   64DIO    C23 3560   3.745   2.380   4.273
   64DIO     O4 3561   3.789   2.485   4.187
   64DIO    C24 3562   3.531   2.496   4.339
   64DIO    C25 3563   3.441   2.559   4.445
   64DIO    C26 3564   3.402   2.464   4.557
   64DIO     H1 3565   5.123   2.457   4.257
   64DIO     H2 3566   5.081   2.371   4.690
   64DIO     H3 3567   4.904   2.582   4.625
   64DIO     H4 3568   4.653   2.603   4.603
   64DIO     H5 3569   4.654   2.310   4.278
   64DIO     H6 3570   4.045   2.685   4.451
   64DIO     H7 3571   4.033   2.413   4.107
   64DIO     H8 3572   3.876   2.667   4.185
   64DIO     H9 3573   3.840   2.490   4.506
   64DIO    H10 3574   3.700   2.589   4.542
   64DIO    H11 3575   3.641   2.355   4.460
   64DIO    H12 3576   3.684   2.312   4.213
   64DIO    H13 3577   3.831   2.323   4.309
   64DIO    H14 3578   3.551   2.572   4.262
   64DIO    H15 3579   3.475   2.417   4.289
   64DIO    H16 3580   3.488   2.648   4.488
   64DIO    H17 3581   3.349   2.594   4.396
   64DIO    H18 3582   3.358   2.372   4.518
   64DIO    H19 3583   3.489   2.437   4.619
   64DIO    H20 3584   3.328   2.511   4.623
   65DIO     F1 3585   2.142   0.505   0.521
   65DIO     C1 3586   2.064   0.416   0.456
   65DIO     C2 3587   1.920   0.423   0.471
   65DIO     C3 3588   1.831   0.326   0.403
   65DIO     C4 3589   1.897   0.225   0.317
   65DIO     C5 3590   2.041   0.220   0.303
   65DIO     F2 3591   2.096   0.129   0.221
   65DIO     C6 3592   2.125   0.316   0.372
   65DIO     F3 3593   2.259   0.310   0.359
   65DIO     C7 3594   1.685   0.330   0.419
   65DIO     C8 3595   1.608   0.209   0.454
   65DIO     C9 3596   1.463   0.213   0.468
   65DIO    C10 3597   1.390   0.335   0.439
   65DIO    C11 3598   1.463   0.458   0.411
   65DIO    C12 3599   1.607   0.454   0.399
   65DIO     F4 3600   1.672   0.568   0.368
   65DIO     O1 3601   1.258   0.339   0.478
   65DIO    C13 3602   1.164   0.408   0.403
   65DIO     O2 3603   1.163   0.451   0.284
   65DIO    C14 3604   1.035   0.420   0.472
   65DIO    C15 3605   0.968   0.302   0.533
   65DIO     F5 3606   1.031   0.183   0.535
   65DIO    C16 3607   0.838   0.310   0.595
   65DIO    C17 3608   0.762   0.435   0.593
   65DIO    C18 3609   0.831   0.555   0.549
   65DIO    C19 3610   0.962   0.548   0.488
   65DIO     F6 3611   1.025   0.665   0.462
   65DIO    C20 3612   0.621   0.442   0.648
   65DIO     O3 3613   0.551   0.317   0.644
   65DIO    C21 3614   0.508   0.282   0.513
   65DIO    C22 3615   0.419   0.392   0.454
   65DIO    C23 3616   0.500   0.522   0.459
   65DIO     O4 3617   0.544   0.549   0.592
   65DIO    C24 3618   0.286   0.409   0.531
   65DIO    C25 3619   0.195   0.286   0.537
   65DIO    C26 3620   0.157   0.231   0.401
   65DIO     H1 3621   1.877   0.500   0.534
   65DIO     H2 3622   1.836   0.158   0.257
   65DIO     H3 3623   1.659   0.116   0.474
   65DIO     H4 3624   1.408   0.127   0.503
   65DIO     H5 3625   1.409   0.550   0.394
   65DIO     H6 3626   0.799   0.222   0.646
   65DIO     H7 3627   0.788   0.653   0.566
   65DIO     H8 3628   0.631   0.466   0.754
   65DIO     H9 3629   0.594   0.265   0.448
   65DIO    H10 3630   0.455   0.187   0.519
   65DIO    H11 3631   0.396   0.368   0.350
   65DIO    H12 3632   0.438   0.606   0.427
   65DIO    H13 3633   0.586   0.517   0.391
   65DIO    H14 3634   0.306   0.442   0.634
   65DIO    H15 3635   0.230   0.491   0.484
   65DIO    H16 3636   0.243   0.207   0.597
   65DIO    H17 3637   0.104   0.314   0.591
   65DIO    H18 3638   0.113   0.309   0.338
   65DIO    H19 3639   0.243   0.189   0.349
   65DIO    H20 3640   0.083   0.151   0.412
   66DIO     F1 3641   9.549   4.297   6.876
   66DIO     C1 3642   9.472   4.287   6.986
   66DIO     C2 3643   9.327   4.297   6.972
   66DIO     C3 3644   9.239   4.288   7.090
   66DIO     C4 3645   9.304   4.267   7.222
   66DIO     C5 3646   9.448   4.257   7.233
   66DIO     F2 3647   9.504   4.233   7.353
   66DIO     C6 3648   9.532   4.267   7.115
   66DIO     F3 3649   9.666   4.259   7.127
   66DIO     C7 3650   9.092   4.299   7.079
   66DIO     C8 3651   9.015   4.392   7.164
   66DIO     C9 3652   8.870   4.403   7.153
   66DIO    C10 3653   8.798   4.314   7.064
   66DIO    C11 3654   8.870   4.227   6.973
   66DIO    C12 3655   9.014   4.219   6.983
   66DIO     F4 3656   9.079   4.133   6.901
   66DIO     O1 3657   8.666   4.346   7.041
   66DIO    C13 3658   8.571   4.246   7.020
   66DIO     O2 3659   8.570   4.122   7.045
   66DIO    C14 3660   8.442   4.299   6.975
   66DIO    C15 3661   8.376   4.412   7.044
   66DIO     F5 3662   8.438   4.475   7.145
   66DIO    C16 3663   8.245   4.461   7.005
   66DIO    C17 3664   8.169   4.395   6.899
   66DIO    C18 3665   8.238   4.295   6.819
   66DIO    C19 3666   8.370   4.247   6.857
   66DIO     F6 3667   8.432   4.165   6.770
   66DIO    C20 3668   8.028   4.438   6.865
   66DIO     O3 3669   7.959   4.499   6.974
   66DIO    C21 3670   7.915   4.405   7.071
   66DIO    C22 3671   7.826   4.298   7.008
   66DIO    C23 3672   7.907   4.236   6.894
   66DIO     O4 3673   7.951   4.335   6.802
   66DIO    C24 3674   7.693   4.355   6.953
   66DIO    C25 3675   7.603   4.424   7.055
   66DIO    C26 3676   7.564   4.335   7.173
   66DIO     H1 3677   9.285   4.311   6.874
   66DIO     H2 3678   9.244   4.250   7.310
   66DIO     H3 3679   9.067   4.458   7.233
   66DIO     H4 3680   8.815   4.476   7.210
   66DIO     H5 3681   8.816   4.165   6.903
   66DIO     H6 3682   8.207   4.550   7.054
   66DIO     H7 3683   8.195   4.259   6.726
   66DIO     H8 3684   8.038   4.517   6.789
   66DIO     H9 3685   8.002   4.358   7.119
   66DIO    H10 3686   7.862   4.459   7.150
   66DIO    H11 3687   7.804   4.221   7.081
   66DIO    H12 3688   7.846   4.164   6.838
   66DIO    H13 3689   7.993   4.180   6.933
   66DIO    H14 3690   7.713   4.427   6.872
   66DIO    H15 3691   7.637   4.273   6.907
   66DIO    H16 3692   7.650   4.515   7.092
   66DIO    H17 3693   7.511   4.456   7.004
   66DIO    H18 3694   7.520   4.241   7.138
   66DIO    H19 3695   7.651   4.312   7.236
   66DIO    H20 3696   7.491   4.386   7.236
   67DIO     F1 3697   5.100   9.124   6.028
   67DIO     C1 3698   5.023   9.230   6.000
   67DIO     C2 3699   4.878   9.214   5.995
   67DIO     C3 3700   4.790   9.327   5.962
   67DIO     C4 3701   4.855   9.458   5.937
   67DIO     C5 3702   4.999   9.472   5.942
   67DIO     F2 3703   5.055   9.593   5.922
   67DIO     C6 3704   5.083   9.358   5.974
   67DIO     F3 3705   5.217   9.372   5.977
   67DIO     C7 3706   4.643   9.313   5.956
   67DIO     C8 3707   4.566   9.361   5.839
   67DIO     C9 3708   4.421   9.347   5.833
   67DIO    C10 3709   4.349   9.294   5.947
   67DIO    C11 3710   4.421   9.239   6.061
   67DIO    C12 3711   4.565   9.251   6.065
   67DIO     F4 3712   4.630   9.204   6.174
   67DIO     O1 3713   4.217   9.261   5.926
   67DIO    C13 3714   4.122   9.276   6.027
   67DIO     O2 3715   4.121   9.342   6.134
   67DIO    C14 3716   3.993   9.215   5.993
   67DIO    C15 3717   3.927   9.241   5.863
   67DIO     F5 3718   3.989   9.313   5.768
   67DIO    C16 3719   3.796   9.187   5.830
   67DIO    C17 3720   3.720   9.111   5.929
   67DIO    C18 3721   3.789   9.070   6.051
   67DIO    C19 3722   3.921   9.123   6.083
   67DIO     F6 3723   3.983   9.070   6.190
   67DIO    C20 3724   3.579   9.064   5.900
   67DIO     O3 3725   3.510   9.145   5.805
   67DIO    C21 3726   3.466   9.269   5.860
   67DIO    C22 3727   3.377   9.246   5.982
   67DIO    C23 3728   3.458   9.162   6.080
   67DIO     O4 3729   3.502   9.041   6.019
   67DIO    C24 3730   3.244   9.175   5.948
   67DIO    C25 3731   3.154   9.247   5.847
   67DIO    C26 3732   3.115   9.388   5.890
   67DIO     H1 3733   4.836   9.116   6.016
   67DIO     H2 3734   4.795   9.547   5.922
   67DIO     H3 3735   4.618   9.403   5.754
   67DIO     H4 3736   4.366   9.374   5.744
   67DIO     H5 3737   4.367   9.195   6.143
   67DIO     H6 3738   3.758   9.202   5.730
   67DIO     H7 3739   3.746   8.996   6.117
   67DIO     H8 3740   3.589   8.966   5.853
   67DIO     H9 3741   3.553   9.330   5.886
   67DIO    H10 3742   3.413   9.324   5.781
   67DIO    H11 3743   3.355   9.343   6.029
   67DIO    H12 3744   3.397   9.134   6.167
   67DIO    H13 3745   3.544   9.218   6.119
   67DIO    H14 3746   3.264   9.074   5.909
   67DIO    H15 3747   3.188   9.161   6.041
   67DIO    H16 3748   3.201   9.250   5.749
   67DIO    H17 3749   3.062   9.188   5.835
   67DIO    H18 3750   3.071   9.389   5.990
   67DIO    H19 3751   3.202   9.455   5.889
   67DIO    H20 3752   3.042   9.429   5.820
   68DIO     F1 3753   9.167   2.005   7.775
   68DIO     C1 3754   9.089   2.066   7.683
   68DIO     C2 3755   8.945   2.050   7.691
   68DIO     C3 3756   8.857   2.113   7.590
   68DIO     C4 3757   8.922   2.194   7.485
   68DIO     C5 3758   9.066   2.207   7.479
   68DIO     F2 3759   9.122   2.285   7.384
   68DIO     C6 3760   9.150   2.144   7.578
   68DIO     F3 3761   9.284   2.157   7.572
   68DIO     C7 3762   8.710   2.098   7.596
   68DIO     C8 3763   8.633   2.056   7.476
   68DIO     C9 3764   8.488   2.042   7.481
   68DIO    C10 3765   8.416   2.078   7.601
   68DIO    C11 3766   8.488   2.112   7.723
   68DIO    C12 3767   8.632   2.124   7.718
   68DIO     F4 3768   8.697   2.162   7.830
   68DIO     O1 3769   8.284   2.039   7.607
   68DIO    C13 3770   8.189   2.118   7.673
   68DIO     O2 3771   8.188   2.239   7.709
   68DIO    C14 3772   8.060   2.050   7.688
   68DIO    C15 3773   7.994   1.982   7.574
   68DIO     F5 3774   8.056   1.973   7.455
   68DIO    C16 3775   7.863   1.920   7.585
   68DIO    C17 3776   7.787   1.929   7.709
   68DIO    C18 3777   7.856   1.980   7.828
   68DIO    C19 3778   7.987   2.041   7.816
   68DIO     F6 3779   8.050   2.072   7.932
   68DIO    C20 3780   7.646   1.875   7.719
   68DIO     O3 3781   7.577   1.873   7.594
   68DIO    C21 3782   7.533   2.001   7.553
   68DIO    C22 3783   7.444   2.066   7.659
   68DIO    C23 3784   7.525   2.068   7.789
   68DIO     O4 3785   7.569   1.937   7.823
   68DIO    C24 3786   7.311   1.990   7.681
   68DIO    C25 3787   7.221   1.977   7.558
   68DIO    C26 3788   7.182   2.110   7.496
   68DIO     H1 3789   8.903   1.992   7.771
   68DIO     H2 3790   8.861   2.250   7.414
   68DIO     H3 3791   8.685   2.031   7.385
   68DIO     H4 3792   8.433   2.003   7.397
   68DIO     H5 3793   8.434   2.134   7.813
   68DIO     H6 3794   7.825   1.865   7.500
   68DIO     H7 3795   7.813   1.969   7.926
   68DIO     H8 3796   7.656   1.770   7.749
   68DIO     H9 3797   7.620   2.065   7.532
   68DIO    H10 3798   7.480   1.990   7.458
   68DIO    H11 3799   7.422   2.169   7.630
   68DIO    H12 3800   7.464   2.105   7.872
   68DIO    H13 3801   7.611   2.135   7.780
   68DIO    H14 3802   7.331   1.889   7.719
   68DIO    H15 3803   7.255   2.041   7.760
   68DIO    H16 3804   7.268   1.914   7.482
   68DIO    H17 3805   7.129   1.925   7.588
   68DIO    H18 3806   7.138   2.178   7.570
   68DIO    H19 3807   7.269   2.160   7.451
   68DIO    H20 3808   7.109   2.095   7.416
   69DIO     F1 3809   3.085   4.934   0.621
   69DIO     C1 3810   3.008   4.975   0.723
   69DIO     C2 3811   2.864   4.977   0.706
   69DIO     C3 3812   2.775   5.023   0.815
   69DIO     C4 3813   2.840   5.064   0.942
   69DIO     C5 3814   2.985   5.061   0.956
   69DIO     F2 3815   3.040   5.095   1.074
   69DIO     C6 3816   3.068   5.016   0.847
   69DIO     F3 3817   3.202   5.014   0.861
   69DIO     C7 3818   2.628   5.028   0.800
   69DIO     C8 3819   2.551   5.150   0.833
   69DIO     C9 3820   2.407   5.154   0.819
   69DIO    C10 3821   2.334   5.034   0.780
   69DIO    C11 3822   2.406   4.915   0.739
   69DIO    C12 3823   2.551   4.912   0.751
   69DIO     F4 3824   2.615   4.799   0.717
   69DIO     O1 3825   2.202   5.052   0.745
   69DIO    C13 3826   2.107   4.953   0.772
   69DIO     O2 3827   2.106   4.855   0.850
   69DIO    C14 3828   1.978   4.980   0.707
   69DIO    C15 3829   1.912   5.112   0.717
   69DIO     F5 3830   1.974   5.215   0.778
   69DIO    C16 3831   1.781   5.138   0.660
   69DIO    C17 3832   1.705   5.031   0.596
   69DIO    C18 3833   1.774   4.905   0.570
   69DIO    C19 3834   1.906   4.879   0.626
   69DIO     F6 3835   1.968   4.766   0.586
   69DIO    C20 3836   1.565   5.054   0.546
   69DIO     O3 3837   1.495   5.158   0.615
   69DIO    C21 3838   1.451   5.118   0.745
   69DIO    C22 3839   1.362   4.994   0.737
   69DIO    C23 3840   1.443   4.887   0.665
   69DIO     O4 3841   1.487   4.933   0.537
   69DIO    C24 3842   1.229   5.020   0.662
   69DIO    C25 3843   1.139   5.128   0.722
   69DIO    C26 3844   1.100   5.103   0.867
   69DIO     H1 3845   2.821   4.944   0.612
   69DIO     H2 3846   2.780   5.090   1.028
   69DIO     H3 3847   2.603   5.239   0.865
   69DIO     H4 3848   2.351   5.245   0.835
   69DIO     H5 3849   2.352   4.828   0.705
   69DIO     H6 3850   1.743   5.239   0.663
   69DIO     H7 3851   1.731   4.830   0.505
   69DIO     H8 3852   1.574   5.089   0.443
   69DIO     H9 3853   1.538   5.099   0.809
   69DIO    H10 3854   1.398   5.203   0.790
   69DIO    H11 3855   1.340   4.959   0.838
   69DIO    H12 3856   1.382   4.797   0.648
   69DIO    H13 3857   1.529   4.855   0.725
   69DIO    H14 3858   1.249   5.046   0.558
   69DIO    H15 3859   1.173   4.926   0.659
   69DIO    H16 3860   1.186   5.226   0.713
   69DIO    H17 3861   1.047   5.133   0.662
   69DIO    H18 3862   1.056   5.003   0.879
   69DIO    H19 3863   1.187   5.111   0.933
   69DIO    H20 3864   1.027   5.177   0.899
   70DIO     F1 3865   3.054   9.827   9.753
   70DIO     C1 3866   2.977   9.722   9.719
   70DIO     C2 3867   2.833   9.733   9.732
   70DIO     C3 3868   2.744   9.620   9.698
   70DIO     C4 3869   2.809   9.496   9.649
   70DIO     C5 3870   2.954   9.487   9.637
   70DIO     F2 3871   3.009   9.375   9.588
   70DIO     C6 3872   3.037   9.600   9.672
   70DIO     F3 3873   3.171   9.590   9.661
   70DIO     C7 3874   2.598   9.629   9.711
   70DIO     C8 3875   2.520   9.525   9.784
   70DIO     C9 3876   2.376   9.534   9.796
   70DIO    C10 3877   2.303   9.640   9.729
   70DIO    C11 3878   2.376   9.747   9.663
   70DIO    C12 3879   2.520   9.740   9.653
   70DIO     F4 3880   2.585   9.838   9.587
   70DIO     O1 3881   2.171   9.655   9.765
   70DIO    C13 3882   2.076   9.697   9.671
   70DIO     O2 3883   2.076   9.700   9.546
   70DIO    C14 3884   1.947   9.730   9.733
   70DIO    C15 3885   1.881   9.639   9.829
   70DIO     F5 3886   1.944   9.526   9.869
   70DIO    C16 3887   1.750   9.666   9.885
   70DIO    C17 3888   1.674   9.784   9.843
   70DIO    C18 3889   1.743   9.884   9.763
   70DIO    C19 3890   1.875   9.857   9.707
   70DIO     F6 3891   1.937   9.959   9.646
   70DIO    C20 3892   1.534   9.808   9.893
   70DIO     O3 3893   1.464   9.688   9.929
   70DIO    C21 3894   1.420   9.613   9.816
   70DIO    C22 3895   1.331   9.698   9.725
   70DIO    C23 3896   1.412   9.823   9.689
   70DIO     O4 3897   1.456   9.891   9.806
   70DIO    C24 3898   1.199   9.740   9.793
   70DIO    C25 3899   1.108   9.625   9.838
   70DIO    C26 3900   1.070   9.529   9.726
   70DIO     H1 3901   2.790   9.826   9.767
   70DIO     H2 3902   2.749   9.413   9.613
   70DIO     H3 3903   2.572   9.444   9.833
   70DIO     H4 3904   2.321   9.462   9.856
   70DIO     H5 3905   2.321   9.829   9.618
   70DIO     H6 3906   1.712   9.599   9.961
   70DIO     H7 3907   1.700   9.982   9.747
   70DIO     H8 3908   1.543   9.865   9.986
   70DIO     H9 3909   1.507   9.576   9.760
   70DIO    H10 3910   1.368   9.525   9.852
   70DIO    H11 3911   1.309   9.643   9.634
   70DIO    H12 3912   1.351   9.893   9.630
   70DIO    H13 3913   1.498   9.796   9.626
   70DIO    H14 3914   1.219   9.803   9.880
   70DIO    H15 3915   1.142   9.802   9.722
   70DIO    H16 3916   1.155   9.569   9.919
   70DIO    H17 3917   1.016   9.668   9.880
   70DIO    H18 3918   1.026   9.583   9.642
   70DIO    H19 3919   1.156   9.473   9.690
   70DIO    H20 3920   0.996   9.457   9.763
   71DIO     F1 3921   5.481   7.007   4.634
   71DIO     C1 3922   5.404   6.904   4.595
   71DIO     C2 3923   5.259   6.915   4.608
   71DIO     C3 3924   5.171   6.804   4.568
   71DIO     C4 3925   5.236   6.683   4.511
   71DIO     C5 3926   5.380   6.675   4.499
   71DIO     F2 3927   5.436   6.566   4.444
   71DIO     C6 3928   5.464   6.785   4.540
   71DIO     F3 3929   5.598   6.776   4.529
   71DIO     C7 3930   5.024   6.812   4.581
   71DIO     C8 3931   4.947   6.704   4.648
   71DIO     C9 3932   4.802   6.712   4.661
   71DIO    C10 3933   4.730   6.822   4.600
   71DIO    C11 3934   4.802   6.933   4.540
   71DIO    C12 3935   4.946   6.926   4.530
   71DIO     F4 3936   5.011   7.028   4.470
   71DIO     O1 3937   4.598   6.836   4.636
   71DIO    C13 3938   4.503   6.883   4.546
   71DIO     O2 3939   4.502   6.893   4.420
   71DIO    C14 3940   4.374   6.912   4.609
   71DIO    C15 3941   4.308   6.815   4.699
   71DIO     F5 3942   4.370   6.701   4.733
   71DIO    C16 3943   4.177   6.839   4.757
   71DIO    C17 3944   4.101   6.959   4.722
   71DIO    C18 3945   4.170   7.064   4.647
   71DIO    C19 3946   4.302   7.040   4.591
   71DIO     F6 3947   4.364   7.146   4.535
   71DIO    C20 3948   3.960   6.980   4.773
   71DIO     O3 3949   3.891   6.858   4.802
   71DIO    C21 3950   3.847   6.791   4.685
   71DIO    C22 3951   3.758   6.881   4.600
   71DIO    C23 3952   3.839   7.007   4.570
   71DIO     O4 3953   3.883   7.068   4.691
   71DIO    C24 3954   3.625   6.918   4.669
   71DIO    C25 3955   3.535   6.801   4.708
   71DIO    C26 3956   3.496   6.712   4.591
   71DIO     H1 3957   5.217   7.006   4.648
   71DIO     H2 3958   5.176   6.603   4.471
   71DIO     H3 3959   4.999   6.620   4.692
   71DIO     H4 3960   4.747   6.638   4.716
   71DIO     H5 3961   4.748   7.017   4.500
   71DIO     H6 3962   4.139   6.768   4.829
   71DIO     H7 3963   4.127   7.163   4.638
   71DIO     H8 3964   3.970   7.031   4.869
   71DIO     H9 3965   3.934   6.757   4.627
   71DIO    H10 3966   3.794   6.700   4.716
   71DIO    H11 3967   3.736   6.831   4.505
   71DIO    H12 3968   3.778   7.080   4.516
   71DIO    H13 3969   3.925   6.984   4.506
   71DIO    H14 3970   3.645   6.977   4.760
   71DIO    H15 3971   3.569   6.984   4.602
   71DIO    H16 3972   3.582   6.740   4.786
   71DIO    H17 3973   3.443   6.841   4.752
   71DIO    H18 3974   3.452   6.770   4.509
   71DIO    H19 3975   3.583   6.657   4.551
   71DIO    H20 3976   3.423   6.637   4.623
   72DIO     F1 3977   2.130   1.988   2.069
   72DIO     C1 3978   2.053   1.896   2.009
   72DIO     C2 3979   1.908   1.904   2.024
   72DIO     C3 3980   1.820   1.803   1.962
   72DIO     C4 3981   1.885   1.697   1.882
   72DIO     C5 3982   2.029   1.692   1.868
   72DIO     F2 3983   2.085   1.596   1.791
   72DIO     C6 3984   2.113   1.791   1.931
   72DIO     F3 3985   2.247   1.784   1.918
   72DIO     C7 3986   1.673   1.808   1.977
   72DIO     C8 3987   1.596   1.689   2.019
   72DIO     C9 3988   1.451   1.694   2.034
   72DIO    C10 3989   1.379   1.814   1.997
   72DIO    C11 3990   1.451   1.935   1.962
   72DIO    C12 3991   1.595   1.931   1.950
   72DIO     F4 3992   1.660   2.043   1.912
   72DIO     O1 3993   1.247   1.820   2.035
   72DIO    C13 3994   1.152   1.885   1.957
   72DIO     O2 3995   1.151   1.921   1.836
   72DIO    C14 3996   1.023   1.901   2.024
   72DIO    C15 3997   0.957   1.787   2.093
   72DIO     F5 3998   1.019   1.668   2.102
   72DIO    C16 3999   0.826   1.799   2.154
   72DIO    C17 4000   0.750   1.923   2.145
   72DIO    C18 4001   0.819   2.041   2.094
   72DIO    C19 4002   0.951   2.030   2.033
   72DIO     F6 4003   1.013   2.145   2.001
   72DIO    C20 4004   0.609   1.933   2.199
   72DIO     O3 4005   0.540   1.808   2.202
   72DIO    C21 4006   0.496   1.766   2.074
   72DIO    C22 4007   0.407   1.872   2.009
   72DIO    C23 4008   0.488   2.002   2.006
   72DIO     O4 4009   0.532   2.037   2.137
   72DIO    C24 4010   0.274   1.894   2.085
   72DIO    C25 4011   0.184   1.771   2.098
   72DIO    C26 4012   0.145   1.708   1.965
   72DIO     H1 4013   1.866   1.985   2.082
   72DIO     H2 4014   1.825   1.627   1.826
   72DIO     H3 4015   1.648   1.598   2.045
   72DIO     H4 4016   1.396   1.610   2.073
   72DIO     H5 4017   1.397   2.026   1.940
   72DIO     H6 4018   0.788   1.714   2.210
   72DIO     H7 4019   0.776   2.140   2.104
   72DIO     H8 4020   0.619   1.964   2.304
   72DIO     H9 4021   0.583   1.745   2.010
   72DIO    H10 4022   0.443   1.671   2.085
   72DIO    H11 4023   0.385   1.842   1.906
   72DIO    H12 4024   0.427   2.084   1.968
   72DIO    H13 4025   0.574   1.993   1.939
   72DIO    H14 4026   0.294   1.932   2.186
   72DIO    H15 4027   0.218   1.973   2.033
   72DIO    H16 4028   0.231   1.696   2.162
   72DIO    H17 4029   0.092   1.802   2.150
   72DIO    H18 4030   0.101   1.783   1.897
   72DIO    H19 4031   0.232   1.663   1.915
   72DIO    H20 4032   0.072   1.629   1.981
   73DIO     F1 4033   8.151   5.383   0.830
   73DIO     C1 4034   8.073   5.281   0.790
   73DIO     C2 4035   7.929   5.291   0.803
   73DIO     C3 4036   7.840   5.180   0.762
   73DIO     C4 4037   7.906   5.060   0.705
   73DIO     C5 4038   8.050   5.052   0.693
   73DIO     F2 4039   8.105   4.943   0.637
   73DIO     C6 4040   8.134   5.162   0.734
   73DIO     F3 4041   8.267   5.153   0.723
   73DIO     C7 4042   7.694   5.188   0.776
   73DIO     C8 4043   7.617   5.080   0.841
   73DIO     C9 4044   7.472   5.088   0.854
   73DIO    C10 4045   7.399   5.198   0.794
   73DIO    C11 4046   7.472   5.310   0.736
   73DIO    C12 4047   7.616   5.303   0.725
   73DIO     F4 4048   7.681   5.405   0.665
   73DIO     O1 4049   7.267   5.212   0.831
   73DIO    C13 4050   7.173   5.260   0.741
   73DIO     O2 4051   7.172   5.270   0.615
   73DIO    C14 4052   7.044   5.289   0.804
   73DIO    C15 4053   6.977   5.191   0.894
   73DIO     F5 4054   7.040   5.076   0.927
   73DIO    C16 4055   6.846   5.215   0.952
   73DIO    C17 4056   6.771   5.335   0.918
   73DIO    C18 4057   6.839   5.440   0.844
   73DIO    C19 4058   6.971   5.416   0.787
   73DIO     F6 4059   7.034   5.523   0.732
   73DIO    C20 4060   6.630   5.355   0.968
   73DIO     O3 4061   6.560   5.234   0.997
   73DIO    C21 4062   6.517   5.167   0.879
   73DIO    C22 4063   6.428   5.257   0.794
   73DIO    C23 4064   6.508   5.384   0.766
   73DIO     O4 4065   6.553   5.444   0.887
   73DIO    C24 4066   6.295   5.294   0.864
   73DIO    C25 4067   6.204   5.176   0.902
   73DIO    C26 4068   6.166   5.088   0.784
   73DIO     H1 4069   7.886   5.382   0.844
   73DIO     H2 4070   7.845   4.980   0.664
   73DIO     H3 4071   7.668   4.996   0.885
   73DIO     H4 4072   7.417   5.013   0.910
   73DIO     H5 4073   7.417   5.394   0.696
   73DIO     H6 4074   6.808   5.143   1.024
   73DIO     H7 4075   6.797   5.539   0.834
   73DIO     H8 4076   6.640   5.406   1.065
   73DIO     H9 4077   6.603   5.133   0.821
   73DIO    H10 4078   6.464   5.076   0.910
   73DIO    H11 4079   6.405   5.208   0.699
   73DIO    H12 4080   6.447   5.457   0.712
   73DIO    H13 4081   6.595   5.361   0.702
   73DIO    H14 4082   6.315   5.352   0.955
   73DIO    H15 4083   6.238   5.361   0.798
   73DIO    H16 4084   6.252   5.115   0.980
   73DIO    H17 4085   6.112   5.217   0.947
   73DIO    H18 4086   6.122   5.147   0.703
   73DIO    H19 4087   6.252   5.034   0.745
   73DIO    H20 4088   6.092   5.014   0.816
   74DIO     F1 4089   4.756   9.073   3.540
   74DIO     C1 4090   4.678   8.975   3.591
   74DIO     C2 4091   4.534   8.992   3.592
   74DIO     C3 4092   4.445   8.889   3.649
   74DIO     C4 4093   4.511   8.767   3.703
   74DIO     C5 4094   4.655   8.753   3.701
   74DIO     F2 4095   4.710   8.639   3.747
   74DIO     C6 4096   4.739   8.856   3.645
   74DIO     F3 4097   4.872   8.842   3.644
   74DIO     C7 4098   4.299   8.905   3.652
   74DIO     C8 4099   4.222   8.884   3.776
   74DIO     C9 4100   4.077   8.899   3.779
   74DIO    C10 4101   4.004   8.925   3.656
   74DIO    C11 4102   4.077   8.953   3.534
   74DIO    C12 4103   4.221   8.941   3.532
   74DIO     F4 4104   4.286   8.963   3.416
   74DIO     O1 4105   3.872   8.961   3.670
   74DIO    C13 4106   3.778   8.924   3.575
   74DIO     O2 4107   3.777   8.836   3.485
   74DIO    C14 4108   3.649   8.991   3.595
   74DIO    C15 4109   3.582   8.996   3.727
   74DIO     F5 4110   3.645   8.946   3.835
   74DIO    C16 4111   3.451   9.055   3.747
   74DIO    C17 4112   3.376   9.108   3.634
   74DIO    C18 4113   3.444   9.120   3.506
   74DIO    C19 4114   3.576   9.062   3.486
   74DIO     F6 4115   3.639   9.090   3.370
   74DIO    C20 4116   3.235   9.160   3.651
   74DIO     O3 4117   3.165   9.101   3.762
   74DIO    C21 4118   3.122   8.969   3.736
   74DIO    C22 4119   3.033   8.964   3.612
   74DIO    C23 4120   3.113   9.024   3.497
   74DIO     O4 4121   3.158   9.156   3.531
   74DIO    C24 4122   2.900   9.041   3.630
   74DIO    C25 4123   2.809   8.992   3.743
   74DIO    C26 4124   2.771   8.846   3.733
   74DIO     H1 4125   4.491   9.083   3.549
   74DIO     H2 4126   4.450   8.684   3.737
   74DIO     H3 4127   4.273   8.862   3.869
   74DIO     H4 4128   4.022   8.892   3.872
   74DIO     H5 4129   4.022   8.978   3.444
   74DIO     H6 4130   3.413   9.063   3.848
   74DIO     H7 4131   3.402   9.178   3.425
   74DIO     H8 4132   3.245   9.266   3.676
   74DIO     H9 4133   3.208   8.903   3.724
   74DIO    H10 4134   3.069   8.933   3.825
   74DIO    H11 4135   3.010   8.859   3.588
   74DIO    H12 4136   3.052   9.032   3.407
   74DIO    H13 4137   3.200   8.961   3.472
   74DIO    H14 4138   2.920   9.147   3.645
   74DIO    H15 4139   2.843   9.034   3.536
   74DIO    H16 4140   2.857   9.011   3.840
   74DIO    H17 4141   2.717   9.053   3.742
   74DIO    H18 4142   2.727   8.823   3.636
   74DIO    H19 4143   2.857   8.780   3.749
   74DIO    H20 4144   2.697   8.821   3.811
   75DIO     F1 4145   5.913   8.207   3.037
   75DIO     C1 4146   5.835   8.314   3.059
   75DIO     C2 4147   5.691   8.302   3.048
   75DIO     C3 4148   5.603   8.418   3.070
   75DIO     C4 4149   5.668   8.546   3.106
   75DIO     C5 4150   5.812   8.556   3.116
   75DIO     F2 4151   5.868   8.673   3.153
   75DIO     C6 4152   5.896   8.441   3.094
   75DIO     F3 4153   6.030   8.451   3.103
   75DIO     C7 4154   5.456   8.408   3.058
   75DIO     C8 4155   5.379   8.503   2.975
   75DIO     C9 4156   5.234   8.493   2.963
   75DIO    C10 4157   5.162   8.395   3.041
   75DIO    C11 4158   5.234   8.295   3.118
   75DIO    C12 4159   5.378   8.303   3.127
   75DIO     F4 4160   5.443   8.213   3.203
   75DIO     O1 4161   5.030   8.376   3.007
   75DIO    C13 4162   4.935   8.343   3.104
   75DIO     O2 4163   4.934   8.354   3.230
   75DIO    C14 4164   4.806   8.304   3.047
   75DIO    C15 4165   4.740   8.385   2.942
   75DIO     F5 4166   4.802   8.493   2.890
   75DIO    C16 4167   4.609   8.352   2.888
   75DIO    C17 4168   4.533   8.240   2.942
   75DIO    C18 4169   4.602   8.149   3.033
   75DIO    C19 4170   4.733   8.181   3.085
   75DIO     F6 4171   4.796   8.086   3.157
   75DIO    C20 4172   4.392   8.211   2.896
   75DIO     O3 4173   4.323   8.326   2.847
   75DIO    C21 4174   4.279   8.412   2.952
   75DIO    C22 4175   4.190   8.337   3.051
   75DIO    C23 4176   4.271   8.217   3.100
   75DIO     O4 4177   4.315   8.137   2.991
   75DIO    C24 4178   4.057   8.289   2.988
   75DIO    C25 4179   3.967   8.398   2.931
   75DIO    C26 4180   3.928   8.505   3.032
   75DIO     H1 4181   5.649   8.205   3.023
   75DIO     H2 4182   5.607   8.632   3.132
   75DIO     H3 4183   5.431   8.579   2.917
   75DIO     H4 4184   5.179   8.558   2.896
   75DIO     H5 4185   5.180   8.218   3.171
   75DIO     H6 4186   4.571   8.411   2.806
   75DIO     H7 4187   4.559   8.053   3.059
   75DIO     H8 4188   4.402   8.144   2.809
   75DIO     H9 4189   4.366   8.455   3.003
   75DIO    H10 4190   4.226   8.496   2.906
   75DIO    H11 4191   4.168   8.402   3.136
   75DIO    H12 4192   4.210   8.154   3.165
   75DIO    H13 4193   4.357   8.250   3.160
   75DIO    H14 4194   4.077   8.216   2.908
   75DIO    H15 4195   4.001   8.234   3.065
   75DIO    H16 4196   4.014   8.445   2.844
   75DIO    H17 4197   3.875   8.351   2.894
   75DIO    H18 4198   3.884   8.461   3.122
   75DIO    H19 4199   4.015   8.565   3.062
   75DIO    H20 4200   3.855   8.573   2.989
   76DIO     F1 4201   2.397   4.768   7.854
   76DIO     C1 4202   2.319   4.704   7.765
   76DIO     C2 4203   2.175   4.705   7.782
   76DIO     C3 4204   2.087   4.635   7.687
   76DIO     C4 4205   2.152   4.565   7.573
   76DIO     C5 4206   2.296   4.565   7.559
   76DIO     F2 4207   2.352   4.505   7.452
   76DIO     C6 4208   2.380   4.635   7.653
   76DIO     F3 4209   2.514   4.633   7.639
   76DIO     C7 4210   1.940   4.634   7.703
   76DIO     C8 4211   1.863   4.508   7.698
   76DIO     C9 4212   1.718   4.507   7.714
   76DIO    C10 4213   1.646   4.632   7.723
   76DIO    C11 4214   1.718   4.758   7.735
   76DIO    C12 4215   1.862   4.758   7.723
   76DIO     F4 4216   1.927   4.876   7.729
   76DIO     O1 4217   1.514   4.623   7.761
   76DIO    C13 4218   1.419   4.713   7.712
   76DIO     O2 4219   1.418   4.790   7.613
   76DIO    C14 4220   1.290   4.702   7.781
   76DIO    C15 4221   1.224   4.572   7.803
   76DIO     F5 4222   1.286   4.458   7.768
   76DIO    C16 4223   1.093   4.560   7.864
   76DIO    C17 4224   1.017   4.679   7.901
   76DIO    C18 4225   1.086   4.807   7.897
   76DIO    C19 4226   1.217   4.819   7.836
   76DIO     F6 4227   1.280   4.938   7.849
   76DIO    C20 4228   0.876   4.669   7.955
   76DIO     O3 4229   0.807   4.551   7.912
   76DIO    C21 4230   0.763   4.559   7.777
   76DIO    C22 4231   0.674   4.681   7.756
   76DIO    C23 4232   0.755   4.803   7.801
   76DIO     O4 4233   0.799   4.787   7.935
   76DIO    C24 4234   0.541   4.674   7.834
   76DIO    C25 4235   0.451   4.555   7.802
   76DIO    C26 4236   0.412   4.545   7.655
   76DIO     H1 4237   2.133   4.759   7.866
   76DIO     H2 4238   2.091   4.520   7.495
   76DIO     H3 4239   1.915   4.413   7.689
   76DIO     H4 4240   1.663   4.414   7.719
   76DIO     H5 4241   1.664   4.850   7.748
   76DIO     H6 4242   1.055   4.461   7.885
   76DIO     H7 4243   1.043   4.895   7.943
   76DIO     H8 4244   0.886   4.658   8.064
   76DIO     H9 4245   0.850   4.563   7.710
   76DIO    H10 4246   0.710   4.467   7.753
   76DIO    H11 4247   0.652   4.692   7.649
   76DIO    H12 4248   0.694   4.894   7.796
   76DIO    H13 4249   0.841   4.819   7.735
   76DIO    H14 4250   0.561   4.673   7.942
   76DIO    H15 4251   0.485   4.766   7.815
   76DIO    H16 4252   0.498   4.461   7.833
   76DIO    H17 4253   0.359   4.564   7.861
   76DIO    H18 4254   0.368   4.639   7.619
   76DIO    H19 4255   0.499   4.522   7.592
   76DIO    H20 4256   0.339   4.466   7.641
   77DIO     F1 4257   2.130   6.914   3.161
   77DIO     C1 4258   2.053   6.808   3.133
   77DIO     C2 4259   1.908   6.820   3.145
   77DIO     C3 4260   1.820   6.705   3.117
   77DIO     C4 4261   1.885   6.579   3.074
   77DIO     C5 4262   2.029   6.570   3.063
   77DIO     F2 4263   2.085   6.455   3.020
   77DIO     C6 4264   2.113   6.684   3.092
   77DIO     F3 4265   2.247   6.673   3.082
   77DIO     C7 4266   1.673   6.714   3.130
   77DIO     C8 4267   1.596   6.615   3.207
   77DIO     C9 4268   1.451   6.624   3.219
   77DIO    C10 4269   1.379   6.726   3.147
   77DIO    C11 4270   1.451   6.830   3.076
   77DIO    C12 4271   1.595   6.823   3.066
   77DIO     F4 4272   1.660   6.917   2.995
   77DIO     O1 4273   1.247   6.744   3.182
   77DIO    C13 4274   1.152   6.781   3.087
   77DIO     O2 4275   1.151   6.777   2.961
   77DIO    C14 4276   1.023   6.817   3.146
   77DIO    C15 4277   0.957   6.731   3.247
   77DIO     F5 4278   1.019   6.620   3.293
   77DIO    C16 4279   0.826   6.761   3.302
   77DIO    C17 4280   0.750   6.876   3.254
   77DIO    C18 4281   0.819   6.972   3.168
   77DIO    C19 4282   0.951   6.942   3.115
   77DIO     F6 4283   1.013   7.042   3.048
   77DIO    C20 4284   0.609   6.902   3.302
   77DIO     O3 4285   0.540   6.785   3.344
   77DIO    C21 4286   0.496   6.705   3.235
   77DIO    C22 4287   0.407   6.785   3.141
   77DIO    C23 4288   0.488   6.907   3.097
   77DIO     O4 4289   0.532   6.981   3.211
   77DIO    C24 4290   0.274   6.829   3.206
   77DIO    C25 4291   0.184   6.717   3.257
   77DIO    C26 4292   0.145   6.616   3.150
   77DIO     H1 4293   1.866   6.915   3.175
   77DIO     H2 4294   1.825   6.494   3.043
   77DIO     H3 4295   1.648   6.536   3.261
   77DIO     H4 4296   1.396   6.556   3.283
   77DIO     H5 4297   1.397   6.910   3.027
   77DIO     H6 4298   0.788   6.698   3.381
   77DIO     H7 4299   0.776   7.069   3.148
   77DIO     H8 4300   0.619   6.964   3.392
   77DIO     H9 4301   0.583   6.664   3.182
   77DIO    H10 4302   0.443   6.618   3.276
   77DIO    H11 4303   0.385   6.725   3.052
   77DIO    H12 4304   0.427   6.974   3.036
   77DIO    H13 4305   0.574   6.878   3.036
   77DIO    H14 4306   0.294   6.897   3.290
   77DIO    H15 4307   0.218   6.888   3.132
   77DIO    H16 4308   0.231   6.665   3.341
   77DIO    H17 4309   0.092   6.762   3.296
   77DIO    H18 4310   0.101   6.665   3.063
   77DIO    H19 4311   0.232   6.557   3.117
   77DIO    H20 4312   0.072   6.545   3.190
   78DIO     F1 4313   9.045   9.407   4.059
   78DIO     C1 4314   8.968   9.300   4.033
   78DIO     C2 4315   8.823   9.313   4.044
   78DIO     C3 4316   8.735   9.197   4.019
   78DIO     C4 4317   8.800   9.070   3.979
   78DIO     C5 4318   8.944   9.061   3.967
   78DIO     F2 4319   9.000   8.945   3.927
   78DIO     C6 4320   9.028   9.175   3.994
   78DIO     F3 4321   9.162   9.165   3.984
   78DIO     C7 4322   8.588   9.207   4.031
   78DIO     C8 4323   8.511   9.109   4.111
   78DIO     C9 4324   8.366   9.118   4.123
   78DIO    C10 4325   8.294   9.219   4.048
   78DIO    C11 4326   8.366   9.322   3.975
   78DIO    C12 4327   8.510   9.314   3.965
   78DIO     F4 4328   8.575   9.407   3.893
   78DIO     O1 4329   8.162   9.237   4.083
   78DIO    C13 4330   8.067   9.273   3.987
   78DIO     O2 4331   8.066   9.266   3.861
   78DIO    C14 4332   7.938   9.310   4.046
   78DIO    C15 4333   7.872   9.226   4.148
   78DIO     F5 4334   7.934   9.116   4.196
   78DIO    C16 4335   7.741   9.257   4.202
   78DIO    C17 4336   7.665   9.371   4.152
   78DIO    C18 4337   7.734   9.465   4.064
   78DIO    C19 4338   7.866   9.434   4.011
   78DIO     F6 4339   7.928   9.532   3.942
   78DIO    C20 4340   7.524   9.398   4.200
   78DIO     O3 4341   7.455   9.282   4.244
   78DIO    C21 4342   7.411   9.199   4.137
   78DIO    C22 4343   7.322   9.278   4.041
   78DIO    C23 4344   7.403   9.399   3.995
   78DIO     O4 4345   7.447   9.475   4.107
   78DIO    C24 4346   7.189   9.324   4.105
   78DIO    C25 4347   7.099   9.212   4.158
   78DIO    C26 4348   7.060   9.109   4.053
   78DIO     H1 4349   8.781   9.408   4.072
   78DIO     H2 4350   8.740   8.985   3.949
   78DIO     H3 4351   8.563   9.031   4.166
   78DIO     H4 4352   8.311   9.051   4.188
   78DIO     H5 4353   8.312   9.400   3.924
   78DIO     H6 4354   7.703   9.196   4.283
   78DIO     H7 4355   7.691   9.562   4.042
   78DIO     H8 4356   7.534   9.462   4.289
   78DIO     H9 4357   7.498   9.158   4.084
   78DIO    H10 4358   7.358   9.114   4.179
   78DIO    H11 4359   7.300   9.216   3.953
   78DIO    H12 4360   7.342   9.465   3.932
   78DIO    H13 4361   7.489   9.368   3.934
   78DIO    H14 4362   7.209   9.393   4.187
   78DIO    H15 4363   7.133   9.381   4.030
   78DIO    H16 4364   7.146   9.162   4.243
   78DIO    H17 4365   7.007   9.258   4.197
   78DIO    H18 4366   7.016   9.156   3.965
   78DIO    H19 4367   7.147   9.050   4.022
   78DIO    H20 4368   6.987   9.039   4.095
   79DIO     F1 4369   4.107   9.229   8.399
   79DIO     C1 4370   4.030   9.124   8.367
   79DIO     C2 4371   3.886   9.135   8.379
   79DIO     C3 4372   3.797   9.022   8.346
   79DIO     C4 4373   3.862   8.898   8.298
   79DIO     C5 4374   4.007   8.889   8.286
   79DIO     F2 4375   4.062   8.776   8.238
   79DIO     C6 4376   4.090   9.002   8.320
   79DIO     F3 4377   4.224   8.992   8.310
   79DIO     C7 4378   3.650   9.031   8.359
   79DIO     C8 4379   3.573   8.928   8.433
   79DIO     C9 4380   3.429   8.936   8.445
   79DIO    C10 4381   3.356   9.042   8.377
   79DIO    C11 4382   3.429   9.149   8.310
   79DIO    C12 4383   3.573   9.142   8.300
   79DIO     F4 4384   3.638   9.239   8.234
   79DIO     O1 4385   3.224   9.058   8.413
   79DIO    C13 4386   3.129   9.099   8.319
   79DIO     O2 4387   3.128   9.101   8.193
   79DIO    C14 4388   3.000   9.133   8.380
   79DIO    C15 4389   2.934   9.042   8.477
   79DIO     F5 4390   2.997   8.930   8.518
   79DIO    C16 4391   2.803   9.070   8.533
   79DIO    C17 4392   2.727   9.187   8.490
   79DIO    C18 4393   2.796   9.286   8.409
   79DIO    C19 4394   2.928   9.259   8.354
   79DIO     F6 4395   2.990   9.361   8.291
   79DIO    C20 4396   2.587   9.211   8.539
   79DIO     O3 4397   2.517   9.092   8.577
   79DIO    C21 4398   2.473   9.016   8.464
   79DIO    C22 4399   2.384   9.101   8.373
   79DIO    C23 4400   2.465   9.225   8.335
   79DIO     O4 4401   2.509   9.294   8.452
   79DIO    C24 4402   2.252   9.143   8.440
   79DIO    C25 4403   2.161   9.028   8.486
   79DIO    C26 4404   2.122   8.931   8.375
   79DIO     H1 4405   3.843   9.229   8.413
   79DIO     H2 4406   3.802   8.815   8.263
   79DIO     H3 4407   3.625   8.847   8.482
   79DIO     H4 4408   3.374   8.866   8.506
   79DIO     H5 4409   3.374   9.230   8.265
   79DIO     H6 4410   2.765   9.004   8.610
   79DIO     H7 4411   2.753   9.384   8.392
   79DIO     H8 4412   2.596   9.269   8.632
   79DIO     H9 4413   2.560   8.979   8.409
   79DIO    H10 4414   2.420   8.928   8.501
   79DIO    H11 4415   2.362   9.044   8.282
   79DIO    H12 4416   2.404   9.294   8.276
   79DIO    H13 4417   2.551   9.198   8.273
   79DIO    H14 4418   2.271   9.207   8.527
   79DIO    H15 4419   2.195   9.204   8.369
   79DIO    H16 4420   2.208   8.973   8.568
   79DIO    H17 4421   2.069   9.072   8.528
   79DIO    H18 4422   2.079   8.984   8.290
   79DIO    H19 4423   2.209   8.875   8.340
   79DIO    H20 4424   2.049   8.859   8.412
   80DIO     F1 4425   4.974   8.791   6.705
   80DIO     C1 4426   4.897   8.685   6.736
   80DIO     C2 4427   4.752   8.702   6.740
   80DIO     C3 4428   4.664   8.589   6.777
   80DIO     C4 4429   4.729   8.459   6.806
   80DIO     C5 4430   4.873   8.446   6.801
   80DIO     F2 4431   4.929   8.325   6.824
   80DIO     C6 4432   4.957   8.558   6.766
   80DIO     F3 4433   5.091   8.544   6.763
   80DIO     C7 4434   4.517   8.604   6.782
   80DIO     C8 4435   4.440   8.559   6.901
   80DIO     C9 4436   4.295   8.573   6.906
   80DIO    C10 4437   4.223   8.623   6.791
   80DIO    C11 4438   4.295   8.675   6.676
   80DIO    C12 4439   4.439   8.663   6.672
   80DIO     F4 4440   4.504   8.707   6.562
   80DIO     O1 4441   4.091   8.656   6.811
   80DIO    C13 4442   3.996   8.638   6.711
   80DIO     O2 4443   3.995   8.569   6.605
   80DIO    C14 4444   3.867   8.700   6.743
   80DIO    C15 4445   3.801   8.679   6.873
   80DIO     F5 4446   3.863   8.609   6.970
   80DIO    C16 4447   3.670   8.733   6.905
   80DIO    C17 4448   3.594   8.807   6.804
   80DIO    C18 4449   3.663   8.844   6.681
   80DIO    C19 4450   3.795   8.790   6.651
   80DIO     F6 4451   3.857   8.840   6.542
   80DIO    C20 4452   3.453   8.854   6.831
   80DIO     O3 4453   3.384   8.776   6.929
   80DIO    C21 4454   3.340   8.650   6.877
   80DIO    C22 4455   3.251   8.670   6.755
   80DIO    C23 4456   3.332   8.752   6.654
   80DIO     O4 4457   3.376   8.874   6.712
   80DIO    C24 4458   3.118   8.742   6.787
   80DIO    C25 4459   3.028   8.672   6.889
   80DIO    C26 4460   2.989   8.530   6.851
   80DIO     H1 4461   4.710   8.799   6.717
   80DIO     H2 4462   4.669   8.371   6.823
   80DIO     H3 4463   4.492   8.520   6.987
   80DIO     H4 4464   4.240   8.548   6.996
   80DIO     H5 4465   4.241   8.717   6.592
   80DIO     H6 4466   3.632   8.721   7.006
   80DIO     H7 4467   3.620   8.916   6.613
   80DIO     H8 4468   3.463   8.954   6.876
   80DIO     H9 4469   3.427   8.588   6.852
   80DIO    H10 4470   3.287   8.598   6.957
   80DIO    H11 4471   3.229   8.572   6.711
   80DIO    H12 4472   3.271   8.776   6.567
   80DIO    H13 4473   3.418   8.694   6.617
   80DIO    H14 4474   3.138   8.843   6.823
   80DIO    H15 4475   3.062   8.753   6.694
   80DIO    H16 4476   3.075   8.672   6.988
   80DIO    H17 4477   2.936   8.732   6.900
   80DIO    H18 4478   2.945   8.527   6.751
   80DIO    H19 4479   3.076   8.463   6.853
   80DIO    H20 4480   2.916   8.491   6.922
   81DIO     F1 4481   9.955   0.379   0.322
   81DIO     C1 4482   9.877   0.286   0.264
   81DIO     C2 4483   9.733   0.294   0.279
   81DIO     C3 4484   9.644   0.192   0.218
   81DIO     C4 4485   9.710   0.085   0.140
   81DIO     C5 4486   9.854   0.079   0.127
   81DIO     F2 4487   9.910  -0.018   0.052
   81DIO     C6 4488   9.938   0.179   0.188
   81DIO     F3 4489  10.072   0.173   0.175
   81DIO     C7 4490   9.498   0.198   0.233
   81DIO     C8 4491   9.421   0.080   0.278
   81DIO     C9 4492   9.276   0.085   0.292
   81DIO    C10 4493   9.204   0.204   0.253
   81DIO    C11 4494   9.276   0.324   0.216
   81DIO    C12 4495   9.420   0.320   0.204
   81DIO     F4 4496   9.485   0.431   0.164
   81DIO     O1 4497   9.071   0.211   0.292
   81DIO    C13 4498   8.977   0.274   0.212
   81DIO     O2 4499   8.976   0.307   0.090
   81DIO    C14 4500   8.848   0.291   0.279
   81DIO    C15 4501   8.781   0.179   0.350
   81DIO     F5 4502   8.844   0.060   0.361
   81DIO    C16 4503   8.651   0.191   0.411
   81DIO    C17 4504   8.575   0.316   0.400
   81DIO    C18 4505   8.644   0.432   0.346
   81DIO    C19 4506   8.775   0.420   0.286
   81DIO     F6 4507   8.838   0.535   0.251
   81DIO    C20 4508   8.434   0.327   0.453
   81DIO     O3 4509   8.364   0.202   0.459
   81DIO    C21 4510   8.321   0.157   0.331
   81DIO    C22 4511   8.232   0.262   0.264
   81DIO    C23 4512   8.313   0.392   0.259
   81DIO     O4 4513   8.357   0.429   0.389
   81DIO    C24 4514   8.099   0.285   0.340
   81DIO    C25 4515   8.008   0.163   0.355
   81DIO    C26 4516   7.970   0.098   0.223
   81DIO     H1 4517   9.691   0.376   0.336
   81DIO     H2 4518   9.649   0.013   0.086
   81DIO     H3 4519   9.472  -0.011   0.306
   81DIO     H4 4520   9.221   0.001   0.333
   81DIO     H5 4521   9.222   0.415   0.192
   81DIO     H6 4522   8.613   0.108   0.469
   81DIO     H7 4523   8.601   0.531   0.355
   81DIO     H8 4524   8.444   0.359   0.558
   81DIO     H9 4525   8.407   0.135   0.268
   81DIO    H10 4526   8.268   0.063   0.345
   81DIO    H11 4527   8.209   0.230   0.162
   81DIO    H12 4528   8.252   0.474   0.220
   81DIO    H13 4529   8.399   0.381   0.192
   81DIO    H14 4530   8.119   0.326   0.440
   81DIO    H15 4531   8.043   0.363   0.286
   81DIO    H16 4532   8.056   0.089   0.420
   81DIO    H17 4533   7.917   0.195   0.407
   81DIO    H18 4534   7.926   0.170   0.155
   81DIO    H19 4535   8.057   0.052   0.175
   81DIO    H20 4536   7.896   0.019   0.241
   82DIO     F1 4537   9.267   6.381   1.655
   82DIO     C1 4538   9.189   6.271   1.646
   82DIO     C2 4539   9.045   6.285   1.656
   82DIO     C3 4540   8.956   6.167   1.648
   82DIO     C4 4541   9.022   6.036   1.628
   82DIO     C5 4542   9.166   6.025   1.618
   82DIO     F2 4543   9.221   5.904   1.596
   82DIO     C6 4544   9.250   6.142   1.627
   82DIO     F3 4545   9.383   6.130   1.619
   82DIO     C7 4546   8.810   6.179   1.659
   82DIO     C8 4547   8.733   6.094   1.753
   82DIO     C9 4548   8.588   6.105   1.763
   82DIO    C10 4549   8.515   6.194   1.674
   82DIO    C11 4550   8.588   6.284   1.586
   82DIO    C12 4551   8.732   6.274   1.577
   82DIO     F4 4552   8.797   6.355   1.491
   82DIO     O1 4553   8.383   6.217   1.705
   82DIO    C13 4554   8.289   6.237   1.605
   82DIO     O2 4555   8.288   6.211   1.482
   82DIO    C14 4556   8.159   6.283   1.657
   82DIO    C15 4557   8.093   6.215   1.771
   82DIO     F5 4558   8.156   6.115   1.836
   82DIO    C16 4559   7.962   6.254   1.820
   82DIO    C17 4560   7.887   6.360   1.753
   82DIO    C18 4561   7.955   6.439   1.652
   82DIO    C19 4562   8.087   6.400   1.604
   82DIO     F6 4563   8.149   6.487   1.521
   82DIO    C20 4564   7.746   6.394   1.796
   82DIO     O3 4565   7.676   6.285   1.858
   82DIO    C21 4566   7.632   6.187   1.764
   82DIO    C22 4567   7.544   6.250   1.657
   82DIO    C23 4568   7.624   6.363   1.593
   82DIO     O4 4569   7.669   6.456   1.692
   82DIO    C24 4570   7.411   6.305   1.714
   82DIO    C25 4571   7.320   6.204   1.783
   82DIO    C26 4572   7.282   6.085   1.696
   82DIO     H1 4573   9.002   6.384   1.669
   82DIO     H2 4574   8.961   5.947   1.612
   82DIO     H3 4575   8.784   6.026   1.819
   82DIO     H4 4576   8.533   6.049   1.837
   82DIO     H5 4577   8.533   6.353   1.523
   82DIO     H6 4578   7.924   6.207   1.909
   82DIO     H7 4579   7.912   6.531   1.615
   82DIO     H8 4580   7.756   6.470   1.874
   82DIO     H9 4581   7.719   6.139   1.719
   82DIO    H10 4582   7.580   6.109   1.820
   82DIO    H11 4583   7.521   6.175   1.580
   82DIO    H12 4584   7.563   6.418   1.521
   82DIO    H13 4585   7.710   6.323   1.538
   82DIO    H14 4586   7.431   6.387   1.784
   82DIO    H15 4587   7.354   6.350   1.631
   82DIO    H16 4588   7.367   6.167   1.875
   82DIO    H17 4589   7.228   6.255   1.815
   82DIO    H18 4590   7.238   6.118   1.601
   82DIO    H19 4591   7.368   6.022   1.674
   82DIO    H20 4592   7.208   6.023   1.748
   83DIO     F1 4593   2.130   1.734   4.285
   83DIO     C1 4594   2.053   1.841   4.311
   83DIO     C2 4595   1.908   1.829   4.299
   83DIO     C3 4596   1.820   1.944   4.324
   83DIO     C4 4597   1.885   2.071   4.364
   83DIO     C5 4598   2.029   2.081   4.375
   83DIO     F2 4599   2.085   2.197   4.415
   83DIO     C6 4600   2.113   1.966   4.349
   83DIO     F3 4601   2.247   1.977   4.359
   83DIO     C7 4602   1.673   1.934   4.312
   83DIO     C8 4603   1.596   2.032   4.232
   83DIO     C9 4604   1.451   2.023   4.220
   83DIO    C10 4605   1.379   1.922   4.295
   83DIO    C11 4606   1.451   1.820   4.369
   83DIO    C12 4607   1.595   1.828   4.378
   83DIO     F4 4608   1.660   1.735   4.451
   83DIO     O1 4609   1.247   1.904   4.261
   83DIO    C13 4610   1.152   1.869   4.357
   83DIO     O2 4611   1.151   1.876   4.482
   83DIO    C14 4612   1.023   1.831   4.298
   83DIO    C15 4613   0.957   1.915   4.196
   83DIO     F5 4614   1.019   2.024   4.147
   83DIO    C16 4615   0.826   1.884   4.141
   83DIO    C17 4616   0.750   1.770   4.192
   83DIO    C18 4617   0.819   1.676   4.280
   83DIO    C19 4618   0.951   1.707   4.333
   83DIO     F6 4619   1.013   1.609   4.402
   83DIO    C20 4620   0.609   1.742   4.144
   83DIO     O3 4621   0.540   1.859   4.099
   83DIO    C21 4622   0.496   1.942   4.206
   83DIO    C22 4623   0.407   1.864   4.303
   83DIO    C23 4624   0.488   1.743   4.349
   83DIO     O4 4625   0.532   1.666   4.238
   83DIO    C24 4626   0.274   1.817   4.239
   83DIO    C25 4627   0.184   1.929   4.185
   83DIO    C26 4628   0.145   2.033   4.289
   83DIO     H1 4629   1.866   1.733   4.272
   83DIO     H2 4630   1.825   2.157   4.393
   83DIO     H3 4631   1.648   2.110   4.177
   83DIO     H4 4632   1.396   2.089   4.155
   83DIO     H5 4633   1.397   1.742   4.420
   83DIO     H6 4634   0.788   1.945   4.060
   83DIO     H7 4635   0.776   1.579   4.303
   83DIO     H8 4636   0.619   1.678   4.056
   83DIO     H9 4637   0.583   1.983   4.259
   83DIO    H10 4638   0.443   2.027   4.163
   83DIO    H11 4639   0.385   1.926   4.390
   83DIO    H12 4640   0.427   1.677   4.412
   83DIO    H13 4641   0.574   1.774   4.409
   83DIO    H14 4642   0.294   1.747   4.157
   83DIO    H15 4643   0.218   1.761   4.314
   83DIO    H16 4644   0.231   1.978   4.100
   83DIO    H17 4645   0.092   1.882   4.146
   83DIO    H18 4646   0.101   1.985   4.378
   83DIO    H19 4647   0.232   2.092   4.321
   83DIO    H20 4648   0.072   2.102   4.247
   84DIO     F1 4649   5.182   3.606   6.446
   84DIO     C1 4650   5.104   3.693   6.379
   84DIO     C2 4651   4.960   3.677   6.381
   84DIO     C3 4652   4.871   3.769   6.308
   84DIO     C4 4653   4.937   3.880   6.234
   84DIO     C5 4654   5.081   3.895   6.234
   84DIO     F2 4655   5.136   3.999   6.170
   84DIO     C6 4656   5.165   3.802   6.307
   84DIO     F3 4657   5.299   3.816   6.304
   84DIO     C7 4658   4.725   3.753   6.308
   84DIO     C8 4659   4.648   3.753   6.181
   84DIO     C9 4660   4.503   3.738   6.181
   84DIO    C10 4661   4.430   3.732   6.307
   84DIO    C11 4662   4.503   3.725   6.432
   84DIO    C12 4663   4.647   3.737   6.432
   84DIO     F4 4664   4.712   3.735   6.550
   84DIO     O1 4665   4.298   3.694   6.299
   84DIO    C13 4666   4.204   3.746   6.387
   84DIO     O2 4667   4.203   3.848   6.461
   84DIO    C14 4668   4.075   3.677   6.379
   84DIO    C15 4669   4.008   3.651   6.249
   84DIO     F5 4670   4.071   3.682   6.133
   84DIO    C16 4671   3.878   3.589   6.239
   84DIO    C17 4672   3.802   3.556   6.359
   84DIO    C18 4673   3.871   3.565   6.487
   84DIO    C19 4674   4.002   3.626   6.497
   84DIO     F6 4675   4.065   3.618   6.616
   84DIO    C20 4676   3.661   3.502   6.351
   84DIO     O3 4677   3.591   3.541   6.232
   84DIO    C21 4678   3.548   3.676   6.235
   84DIO    C22 4679   3.459   3.702   6.357
   84DIO    C23 4680   3.540   3.661   6.480
   84DIO     O4 4681   3.584   3.526   6.469
   84DIO    C24 4682   3.326   3.623   6.352
   84DIO    C25 4683   3.235   3.651   6.232
   84DIO    C26 4684   3.197   3.798   6.217
   84DIO     H1 4685   4.917   3.595   6.438
   84DIO     H2 4686   4.876   3.957   6.187
   84DIO     H3 4687   4.699   3.759   6.086
   84DIO     H4 4688   4.448   3.729   6.088
   84DIO     H5 4689   4.449   3.715   6.525
   84DIO     H6 4690   3.839   3.565   6.140
   84DIO     H7 4691   3.828   3.522   6.577
   84DIO     H8 4692   3.671   3.393   6.344
   84DIO     H9 4693   3.634   3.743   6.236
   84DIO    H10 4694   3.495   3.697   6.142
   84DIO    H11 4695   3.436   3.809   6.363
   84DIO    H12 4696   3.478   3.668   6.570
   84DIO    H13 4697   3.626   3.727   6.494
   84DIO    H14 4698   3.346   3.515   6.354
   84DIO    H15 4699   3.270   3.645   6.444
   84DIO    H16 4700   3.283   3.617   6.139
   84DIO    H17 4701   3.144   3.592   6.243
   84DIO    H18 4702   3.153   3.837   6.310
   84DIO    H19 4703   3.283   3.860   6.191
   84DIO    H20 4704   3.123   3.809   6.137
   85DIO     F1 4705   9.076   3.830   2.598
   85DIO     C1 4706   8.999   3.782   2.499
   85DIO     C2 4707   8.855   3.781   2.516
   85DIO     C3 4708   8.766   3.727   2.410
   85DIO     C4 4709   8.831   3.678   2.287
   85DIO     C5 4710   8.976   3.681   2.272
   85DIO     F2 4711   9.031   3.639   2.157
   85DIO     C6 4712   9.059   3.733   2.378
   85DIO     F3 4713   9.193   3.734   2.363
   85DIO     C7 4714   8.619   3.724   2.426
   85DIO     C8 4715   8.542   3.600   2.400
   85DIO     C9 4716   8.398   3.597   2.415
   85DIO    C10 4717   8.325   3.719   2.446
   85DIO    C11 4718   8.397   3.840   2.479
   85DIO    C12 4719   8.542   3.843   2.467
   85DIO     F4 4720   8.606   3.958   2.493
   85DIO     O1 4721   8.193   3.704   2.482
   85DIO    C13 4722   8.098   3.800   2.449
   85DIO     O2 4723   8.097   3.893   2.364
   85DIO    C14 4724   7.969   3.778   2.515
   85DIO    C15 4725   7.903   3.646   2.514
   85DIO     F5 4726   7.965   3.539   2.460
   85DIO    C16 4727   7.772   3.624   2.573
   85DIO    C17 4728   7.696   3.735   2.629
   85DIO    C18 4729   7.765   3.862   2.647
   85DIO    C19 4730   7.897   3.884   2.589
   85DIO     F6 4731   7.959   3.999   2.621
   85DIO    C20 4732   7.556   3.715   2.681
   85DIO     O3 4733   7.486   3.607   2.619
   85DIO    C21 4734   7.442   3.638   2.487
   85DIO    C22 4735   7.353   3.762   2.486
   85DIO    C23 4736   7.434   3.874   2.551
   85DIO     O4 4737   7.478   3.836   2.681
   85DIO    C24 4738   7.220   3.741   2.563
   85DIO    C25 4739   7.130   3.629   2.510
   85DIO    C26 4740   7.091   3.645   2.364
   85DIO     H1 4741   8.812   3.820   2.608
   85DIO     H2 4742   8.771   3.647   2.202
   85DIO     H3 4743   8.594   3.509   2.375
   85DIO     H4 4744   8.342   3.505   2.405
   85DIO     H5 4745   8.343   3.929   2.507
   85DIO     H6 4746   7.734   3.522   2.577
   85DIO     H7 4747   7.722   3.941   2.707
   85DIO     H8 4748   7.565   3.687   2.786
   85DIO     H9 4749   7.529   3.652   2.422
   85DIO    H10 4750   7.389   3.550   2.448
   85DIO    H11 4751   7.331   3.790   2.383
   85DIO    H12 4752   7.373   3.964   2.562
   85DIO    H13 4753   7.520   3.901   2.489
   85DIO    H14 4754   7.240   3.722   2.669
   85DIO    H15 4755   7.164   3.835   2.559
   85DIO    H16 4756   7.177   3.532   2.526
   85DIO    H17 4757   7.038   3.629   2.571
   85DIO    H18 4758   7.047   3.743   2.345
   85DIO    H19 4759   7.178   3.632   2.298
   85DIO    H20 4760   7.018   3.569   2.337
   86DIO     F1 4761   2.284   3.875   5.322
   86DIO     C1 4762   2.206   3.856   5.430
   86DIO     C2 4763   2.062   3.867   5.417
   86DIO     C3 4764   1.973   3.849   5.534
   86DIO     C4 4765   2.039   3.817   5.663
   86DIO     C5 4766   2.183   3.806   5.673
   86DIO     F2 4767   2.238   3.773   5.792
   86DIO     C6 4768   2.267   3.825   5.557
   86DIO     F3 4769   2.401   3.816   5.569
   86DIO     C7 4770   1.827   3.861   5.524
   86DIO     C8 4771   1.750   3.946   5.616
   86DIO     C9 4772   1.605   3.957   5.606
   86DIO    C10 4773   1.532   3.876   5.510
   86DIO    C11 4774   1.605   3.797   5.412
   86DIO    C12 4775   1.749   3.788   5.421
   86DIO     F4 4776   1.814   3.709   5.333
   86DIO     O1 4777   1.400   3.910   5.490
   86DIO    C13 4778   1.306   3.812   5.461
   86DIO     O2 4779   1.305   3.687   5.475
   86DIO    C14 4780   1.177   3.868   5.420
   86DIO    C15 4781   1.110   3.975   5.498
   86DIO     F5 4782   1.173   4.031   5.604
   86DIO    C16 4783   0.980   4.028   5.463
   86DIO    C17 4784   0.904   3.971   5.352
   86DIO    C18 4785   0.973   3.877   5.264
   86DIO    C19 4786   1.104   3.826   5.298
   86DIO     F6 4787   1.167   3.751   5.204
   86DIO    C20 4788   0.763   4.016   5.322
   86DIO     O3 4789   0.693   4.068   5.435
   86DIO    C21 4790   0.650   3.966   5.524
   86DIO    C22 4791   0.561   3.865   5.452
   86DIO    C23 4792   0.642   3.812   5.334
   86DIO     O4 4793   0.686   3.919   5.251
   86DIO    C24 4794   0.428   3.926   5.402
   86DIO    C25 4795   0.337   3.987   5.510
   86DIO    C26 4796   0.299   3.889   5.620
   86DIO     H1 4797   2.019   3.889   5.320
   86DIO     H2 4798   1.978   3.793   5.750
   86DIO     H3 4799   1.801   4.006   5.690
   86DIO     H4 4800   1.550   4.026   5.669
   86DIO     H5 4801   1.551   3.741   5.338
   86DIO     H6 4802   0.941   4.112   5.519
   86DIO     H7 4803   0.930   3.848   5.169
   86DIO     H8 4804   0.773   4.101   5.253
   86DIO     H9 4805   0.736   3.916   5.569
   86DIO    H10 4806   0.597   4.014   5.607
   86DIO    H11 4807   0.538   3.782   5.520
   86DIO    H12 4808   0.580   3.745   5.273
   86DIO    H13 4809   0.728   3.753   5.369
   86DIO    H14 4810   0.448   4.004   5.328
   86DIO    H15 4811   0.372   3.848   5.350
   86DIO    H16 4812   0.385   4.075   5.555
   86DIO    H17 4813   0.246   4.022   5.462
   86DIO    H18 4814   0.255   3.798   5.578
   86DIO    H19 4815   0.385   3.861   5.681
   86DIO    H20 4816   0.225   3.935   5.687
   87DIO     F1 4817   2.577   5.748   8.673
   87DIO     C1 4818   2.499   5.750   8.563
   87DIO     C2 4819   2.355   5.741   8.577
   87DIO     C3 4820   2.266   5.740   8.459
   87DIO     C4 4821   2.332   5.752   8.326
   87DIO     C5 4822   2.476   5.761   8.315
   87DIO     F2 4823   2.532   5.775   8.193
   87DIO     C6 4824   2.560   5.760   8.432
   87DIO     F3 4825   2.694   5.767   8.420
   87DIO     C7 4826   2.120   5.730   8.471
   87DIO     C8 4827   2.043   5.631   8.393
   87DIO     C9 4828   1.898   5.622   8.405
   87DIO    C10 4829   1.826   5.717   8.487
   87DIO    C11 4830   1.898   5.810   8.571
   87DIO    C12 4831   2.042   5.818   8.561
   87DIO     F4 4832   2.107   5.909   8.636
   87DIO     O1 4833   1.693   5.687   8.512
   87DIO    C13 4834   1.599   5.788   8.526
   87DIO     O2 4835   1.598   5.909   8.492
   87DIO    C14 4836   1.470   5.739   8.575
   87DIO    C15 4837   1.403   5.621   8.515
   87DIO     F5 4838   1.466   5.550   8.419
   87DIO    C16 4839   1.273   5.575   8.557
   87DIO    C17 4840   1.197   5.648   8.658
   87DIO    C18 4841   1.266   5.755   8.730
   87DIO    C19 4842   1.397   5.800   8.689
   87DIO     F6 4843   1.460   5.888   8.769
   87DIO    C20 4844   1.056   5.608   8.695
   87DIO     O3 4845   0.986   5.539   8.591
   87DIO    C21 4846   0.943   5.626   8.487
   87DIO    C22 4847   0.854   5.737   8.542
   87DIO    C23 4848   0.935   5.808   8.651
   87DIO     O4 4849   0.979   5.716   8.750
   87DIO    C24 4850   0.721   5.684   8.601
   87DIO    C25 4851   0.630   5.608   8.504
   87DIO    C26 4852   0.592   5.687   8.380
   87DIO     H1 4853   2.313   5.734   8.677
   87DIO     H2 4854   2.271   5.762   8.237
   87DIO     H3 4855   2.094   5.561   8.329
   87DIO     H4 4856   1.843   5.544   8.354
   87DIO     H5 4857   1.844   5.877   8.636
   87DIO     H6 4858   1.235   5.482   8.515
   87DIO     H7 4859   1.223   5.798   8.820
   87DIO     H8 4860   1.066   5.535   8.776
   87DIO     H9 4861   1.029   5.668   8.435
   87DIO    H10 4862   0.890   5.565   8.413
   87DIO    H11 4863   0.831   5.809   8.463
   87DIO    H12 4864   0.874   5.884   8.701
   87DIO    H13 4865   1.021   5.860   8.607
   87DIO    H14 4866   0.741   5.619   8.687
   87DIO    H15 4867   0.665   5.770   8.640
   87DIO    H16 4868   0.678   5.514   8.474
   87DIO    H17 4869   0.539   5.580   8.558
   87DIO    H18 4870   0.548   5.784   8.407
   87DIO    H19 4871   0.679   5.705   8.316
   87DIO    H20 4872   0.518   5.632   8.322
   88DIO     F1 4873   5.620   5.718   6.864
   88DIO     C1 4874   5.543   5.614   6.829
   88DIO     C2 4875   5.399   5.625   6.842
   88DIO     C3 4876   5.310   5.512   6.807
   88DIO     C4 4877   5.375   5.389   6.757
   88DIO     C5 4878   5.520   5.380   6.746
   88DIO     F2 4879   5.575   5.268   6.696
   88DIO     C6 4880   5.603   5.492   6.781
   88DIO     F3 4881   5.737   5.482   6.770
   88DIO     C7 4882   5.163   5.521   6.821
   88DIO     C8 4883   5.086   5.417   6.892
   88DIO     C9 4884   4.942   5.425   6.905
   88DIO    C10 4885   4.869   5.532   6.838
   88DIO    C11 4886   4.941   5.640   6.774
   88DIO    C12 4887   5.086   5.632   6.763
   88DIO     F4 4888   5.150   5.731   6.698
   88DIO     O1 4889   4.737   5.547   6.874
   88DIO    C13 4890   4.642   5.590   6.781
   88DIO     O2 4891   4.641   5.593   6.656
   88DIO    C14 4892   4.513   5.622   6.843
   88DIO    C15 4893   4.447   5.530   6.938
   88DIO     F5 4894   4.509   5.417   6.978
   88DIO    C16 4895   4.316   5.557   6.995
   88DIO    C17 4896   4.240   5.675   6.954
   88DIO    C18 4897   4.309   5.775   6.874
   88DIO    C19 4898   4.441   5.749   6.819
   88DIO     F6 4899   4.503   5.852   6.758
   88DIO    C20 4900   4.100   5.698   7.004
   88DIO     O3 4901   4.030   5.578   7.039
   88DIO    C21 4902   3.986   5.505   6.925
   88DIO    C22 4903   3.897   5.590   6.835
   88DIO    C23 4904   3.978   5.715   6.799
   88DIO     O4 4905   4.022   5.782   6.917
   88DIO    C24 4906   3.764   5.631   6.903
   88DIO    C25 4907   3.674   5.516   6.947
   88DIO    C26 4908   3.635   5.421   6.835
   88DIO     H1 4909   5.356   5.718   6.878
   88DIO     H2 4910   5.315   5.306   6.721
   88DIO     H3 4911   5.138   5.335   6.941
   88DIO     H4 4912   4.886   5.353   6.964
   88DIO     H5 4913   4.887   5.722   6.729
   88DIO     H6 4914   4.278   5.490   7.071
   88DIO     H7 4915   4.266   5.874   6.859
   88DIO     H8 4916   4.109   5.755   7.097
   88DIO     H9 4917   4.073   5.468   6.869
   88DIO    H10 4918   3.933   5.416   6.961
   88DIO    H11 4919   3.875   5.535   6.743
   88DIO    H12 4920   3.917   5.785   6.742
   88DIO    H13 4921   4.064   5.689   6.737
   88DIO    H14 4922   3.784   5.694   6.991
   88DIO    H15 4923   3.708   5.694   6.833
   88DIO    H16 4924   3.721   5.459   7.029
   88DIO    H17 4925   3.582   5.559   6.990
   88DIO    H18 4926   3.591   5.475   6.751
   88DIO    H19 4927   3.722   5.365   6.799
   88DIO    H20 4928   3.562   5.348   6.871
   89DIO     F1 4929   7.292   4.035   0.787
   89DIO     C1 4930   7.214   4.067   0.681
   89DIO     C2 4931   7.070   4.055   0.693
   89DIO     C3 4932   6.981   4.087   0.579
   89DIO     C4 4933   7.047   4.135   0.455
   89DIO     C5 4934   7.191   4.146   0.446
   89DIO     F2 4935   7.247   4.194   0.333
   89DIO     C6 4936   7.275   4.113   0.559
   89DIO     F3 4937   7.409   4.124   0.549
   89DIO     C7 4938   6.835   4.074   0.588
   89DIO     C8 4939   6.758   4.000   0.485
   89DIO     C9 4940   6.613   3.988   0.494
   89DIO    C10 4941   6.541   4.057   0.599
   89DIO    C11 4942   6.613   4.123   0.706
   89DIO    C12 4943   6.757   4.133   0.699
   89DIO     F4 4944   6.822   4.200   0.796
   89DIO     O1 4945   6.408   4.021   0.616
   89DIO    C13 4946   6.314   4.115   0.657
   89DIO     O2 4947   6.313   4.240   0.657
   89DIO    C14 4948   6.185   4.053   0.690
   89DIO    C15 4949   6.118   3.957   0.600
   89DIO     F5 4950   6.181   3.915   0.488
   89DIO    C16 4951   5.988   3.900   0.628
   89DIO    C17 4952   5.912   3.944   0.745
   89DIO    C18 4953   5.981   4.026   0.844
   89DIO    C19 4954   6.112   4.081   0.816
   89DIO     F6 4955   6.175   4.143   0.918
   89DIO    C20 4956   5.771   3.895   0.769
   89DIO     O3 4957   5.701   3.857   0.650
   89DIO    C21 4958   5.658   3.969   0.574
   89DIO    C22 4959   5.569   4.061   0.658
   89DIO    C23 4960   5.650   4.099   0.782
   89DIO     O4 4961   5.694   3.983   0.852
   89DIO    C24 4962   5.436   3.994   0.700
   89DIO    C25 4963   5.345   3.947   0.586
   89DIO    C26 4964   5.307   4.058   0.489
   89DIO     H1 4965   7.028   4.021   0.787
   89DIO     H2 4966   6.986   4.169   0.372
   89DIO     H3 4967   6.809   3.950   0.405
   89DIO     H4 4968   6.558   3.927   0.424
   89DIO     H5 4969   6.559   4.170   0.787
   89DIO     H6 4970   5.950   3.823   0.562
   89DIO     H7 4971   5.938   4.042   0.942
   89DIO     H8 4972   5.781   3.802   0.827
   89DIO     H9 4973   5.744   4.024   0.536
   89DIO    H10 4974   5.605   3.932   0.486
   89DIO    H11 4975   5.546   4.152   0.601
   89DIO    H12 4976   5.589   4.158   0.851
   89DIO    H13 4977   5.736   4.161   0.755
   89DIO    H14 4978   5.456   3.907   0.765
   89DIO    H15 4979   5.380   4.065   0.762
   89DIO    H16 4980   5.393   3.865   0.531
   89DIO    H17 4981   5.254   3.906   0.630
   89DIO    H18 4982   5.263   4.143   0.541
   89DIO    H19 4983   5.394   4.093   0.432
   89DIO    H20 4984   5.233   4.021   0.417
   90DIO     F1 4985   6.804   2.714   9.416
   90DIO     C1 4986   6.726   2.635   9.492
   90DIO     C2 4987   6.582   2.651   9.488
   90DIO     C3 4988   6.493   2.567   9.572
   90DIO     C4 4989   6.559   2.465   9.657
   90DIO     C5 4990   6.703   2.451   9.659
   90DIO     F2 4991   6.759   2.354   9.734
   90DIO     C6 4992   6.787   2.534   9.576
   90DIO     F3 4993   6.921   2.521   9.580
   90DIO     C7 4994   6.347   2.583   9.570
   90DIO     C8 4995   6.270   2.597   9.696
   90DIO     C9 4996   6.125   2.612   9.694
   90DIO    C10 4997   6.053   2.604   9.569
   90DIO    C11 4998   6.125   2.598   9.443
   90DIO    C12 4999   6.269   2.585   9.445
   90DIO     F4 5000   6.334   2.574   9.327
   90DIO     O1 5001   5.920   2.643   9.572
   90DIO    C13 5002   5.826   2.581   9.490
   90DIO     O2 5003   5.825   2.472   9.428
   90DIO    C14 5004   5.697   2.651   9.491
   90DIO    C15 5005   5.631   2.691   9.617
   90DIO     F5 5006   5.693   2.673   9.735
   90DIO    C16 5007   5.500   2.754   9.620
   90DIO    C17 5008   5.424   2.773   9.497
   90DIO    C18 5009   5.493   2.750   9.371
   90DIO    C19 5010   5.624   2.689   9.368
   90DIO     F6 5011   5.687   2.684   9.248
   90DIO    C20 5012   5.283   2.828   9.499
   90DIO     O3 5013   5.214   2.803   9.622
   90DIO    C21 5014   5.170   2.668   9.633
   90DIO    C22 5015   5.081   2.629   9.516
   90DIO    C23 5016   5.162   2.656   9.389
   90DIO     O4 5017   5.206   2.791   9.385
   90DIO    C24 5018   4.948   2.708   9.511
   90DIO    C25 5019   4.858   2.693   9.634
   90DIO    C26 5020   4.819   2.549   9.665
   90DIO     H1 5021   6.540   2.726   9.423
   90DIO     H2 5022   6.498   2.394   9.712
   90DIO     H3 5023   6.321   2.601   9.791
   90DIO     H4 5024   6.070   2.631   9.785
   90DIO     H5 5025   6.071   2.597   9.350
   90DIO     H6 5026   5.462   2.789   9.715
   90DIO     H7 5027   5.450   2.784   9.277
   90DIO     H8 5028   5.293   2.937   9.494
   90DIO     H9 5029   5.257   2.601   9.640
   90DIO    H10 5030   5.117   2.657   9.728
   90DIO    H11 5031   5.058   2.522   9.521
   90DIO    H12 5032   5.101   2.638   9.300
   90DIO    H13 5033   5.248   2.588   9.382
   90DIO    H14 5034   4.968   2.815   9.497
   90DIO    H15 5035   4.892   2.676   9.423
   90DIO    H16 5036   4.905   2.737   9.722
   90DIO    H17 5037   4.766   2.750   9.616
   90DIO    H18 5038   4.775   2.500   9.577
   90DIO    H19 5039   4.906   2.490   9.697
   90DIO    H20 5040   4.745   2.546   9.745
   91DIO     F1 5041   2.130   7.619   4.671
   91DIO     C1 5042   2.053   7.664   4.771
   91DIO     C2 5043   1.908   7.666   4.754
   91DIO     C3 5044   1.820   7.718   4.860
   91DIO     C4 5045   1.885   7.765   4.985
   91DIO     C5 5046   2.029   7.762   4.999
   91DIO     F2 5047   2.085   7.801   5.115
   91DIO     C6 5048   2.113   7.711   4.893
   91DIO     F3 5049   2.247   7.710   4.907
   91DIO     C7 5050   1.673   7.721   4.845
   91DIO     C8 5051   1.596   7.845   4.873
   91DIO     C9 5052   1.451   7.848   4.858
   91DIO    C10 5053   1.379   7.727   4.825
   91DIO    C11 5054   1.451   7.606   4.789
   91DIO    C12 5055   1.595   7.603   4.802
   91DIO     F4 5056   1.660   7.489   4.774
   91DIO     O1 5057   1.247   7.743   4.789
   91DIO    C13 5058   1.152   7.646   4.821
   91DIO     O2 5059   1.151   7.551   4.904
   91DIO    C14 5060   1.023   7.669   4.755
   91DIO    C15 5061   0.957   7.801   4.758
   91DIO     F5 5062   1.019   7.907   4.814
   91DIO    C16 5063   0.826   7.825   4.700
   91DIO    C17 5064   0.750   7.715   4.641
   91DIO    C18 5065   0.819   7.588   4.622
   91DIO    C19 5066   0.951   7.565   4.679
   91DIO     F6 5067   1.013   7.450   4.644
   91DIO    C20 5068   0.609   7.735   4.590
   91DIO     O3 5069   0.540   7.842   4.654
   91DIO    C21 5070   0.496   7.809   4.786
   91DIO    C22 5071   0.407   7.685   4.784
   91DIO    C23 5072   0.488   7.574   4.716
   91DIO     O4 5073   0.532   7.614   4.587
   91DIO    C24 5074   0.274   7.707   4.708
   91DIO    C25 5075   0.184   7.818   4.762
   91DIO    C26 5076   0.145   7.799   4.908
   91DIO     H1 5077   1.866   7.629   4.661
   91DIO     H2 5078   1.825   7.794   5.070
   91DIO     H3 5079   1.648   7.936   4.900
   91DIO     H4 5080   1.396   7.940   4.870
   91DIO     H5 5081   1.397   7.518   4.760
   91DIO     H6 5082   0.788   7.926   4.698
   91DIO     H7 5083   0.776   7.510   4.559
   91DIO     H8 5084   0.619   7.766   4.485
   91DIO     H9 5085   0.583   7.793   4.851
   91DIO    H10 5086   0.443   7.895   4.826
   91DIO    H11 5087   0.385   7.655   4.886
   91DIO    H12 5088   0.427   7.484   4.704
   91DIO    H13 5089   0.574   7.545   4.778
   91DIO    H14 5090   0.294   7.728   4.602
   91DIO    H15 5091   0.218   7.613   4.709
   91DIO    H16 5092   0.231   7.915   4.749
   91DIO    H17 5093   0.092   7.820   4.702
   91DIO    H18 5094   0.101   7.701   4.926
   91DIO    H19 5095   0.232   7.811   4.974
   91DIO    H20 5096   0.072   7.875   4.937
   92DIO     F1 5097   6.462   7.482   8.188
   92DIO     C1 5098   6.385   7.485   8.078
   92DIO     C2 5099   6.241   7.476   8.092
   92DIO     C3 5100   6.152   7.477   7.974
   92DIO     C4 5101   6.217   7.490   7.842
   92DIO     C5 5102   6.362   7.499   7.830
   92DIO     F2 5103   6.417   7.515   7.708
   92DIO     C6 5104   6.445   7.497   7.948
   92DIO     F3 5105   6.579   7.504   7.935
   92DIO     C7 5106   6.005   7.467   7.986
   92DIO     C8 5107   5.928   7.369   7.907
   92DIO     C9 5108   5.784   7.359   7.918
   92DIO    C10 5109   5.711   7.453   8.002
   92DIO    C11 5110   5.783   7.546   8.087
   92DIO    C12 5111   5.928   7.554   8.077
   92DIO     F4 5112   5.992   7.644   8.153
   92DIO     O1 5113   5.579   7.423   8.027
   92DIO    C13 5114   5.484   7.524   8.042
   92DIO     O2 5115   5.483   7.646   8.009
   92DIO    C14 5116   5.355   7.474   8.090
   92DIO    C15 5117   5.289   7.357   8.029
   92DIO     F5 5118   5.351   7.287   7.932
   92DIO    C16 5119   5.158   7.310   8.071
   92DIO    C17 5120   5.082   7.383   8.172
   92DIO    C18 5121   5.151   7.488   8.246
   92DIO    C19 5122   5.283   7.534   8.205
   92DIO     F6 5123   5.345   7.621   8.286
   92DIO    C20 5124   4.942   7.342   8.209
   92DIO     O3 5125   4.872   7.274   8.103
   92DIO    C21 5126   4.828   7.362   8.001
   92DIO    C22 5127   4.739   7.472   8.057
   92DIO    C23 5128   4.820   7.542   8.167
   92DIO     O4 5129   4.864   7.449   8.265
   92DIO    C24 5130   4.606   7.419   8.116
   92DIO    C25 5131   4.516   7.344   8.018
   92DIO    C26 5132   4.477   7.425   7.895
   92DIO     H1 5133   6.198   7.468   8.192
   92DIO     H2 5134   6.157   7.501   7.752
   92DIO     H3 5135   5.980   7.299   7.842
   92DIO     H4 5136   5.728   7.282   7.867
   92DIO     H5 5137   5.729   7.612   8.153
   92DIO     H6 5138   5.120   7.218   8.027
   92DIO     H7 5139   5.108   7.530   8.336
   92DIO     H8 5140   4.951   7.268   8.289
   92DIO     H9 5141   4.915   7.405   7.949
   92DIO    H10 5142   4.775   7.303   7.926
   92DIO    H11 5143   4.717   7.545   7.979
   92DIO    H12 5144   4.759   7.617   8.218
   92DIO    H13 5145   4.906   7.595   8.124
   92DIO    H14 5146   4.626   7.353   8.201
   92DIO    H15 5147   4.550   7.504   8.156
   92DIO    H16 5148   4.563   7.250   7.986
   92DIO    H17 5149   4.424   7.316   8.071
   92DIO    H18 5150   4.433   7.521   7.923
   92DIO    H19 5151   4.564   7.444   7.831
   92DIO    H20 5152   4.404   7.370   7.835
   93DIO     F1 5153   4.717   7.260   4.766
   93DIO     C1 5154   4.640   7.327   4.679
   93DIO     C2 5155   4.496   7.312   4.686
   93DIO     C3 5156   4.407   7.383   4.591
   93DIO     C4 5157   4.472   7.472   4.492
   93DIO     C5 5158   4.617   7.486   4.488
   93DIO     F2 5159   4.672   7.571   4.399
   93DIO     C6 5160   4.700   7.414   4.581
   93DIO     F3 5161   4.834   7.428   4.576
   93DIO     C7 5162   4.260   7.367   4.595
   93DIO     C8 5163   4.183   7.335   4.472
   93DIO     C9 5164   4.039   7.320   4.476
   93DIO    C10 5165   3.966   7.347   4.599
   93DIO    C11 5166   4.038   7.371   4.723
   93DIO    C12 5167   4.183   7.383   4.719
   93DIO     F4 5168   4.247   7.411   4.834
   93DIO     O1 5169   3.834   7.308   4.601
   93DIO    C13 5170   3.739   7.381   4.673
   93DIO     O2 5171   3.738   7.498   4.719
   93DIO    C14 5172   3.610   7.312   4.683
   93DIO    C15 5173   3.544   7.254   4.564
   93DIO     F5 5174   3.606   7.255   4.444
   93DIO    C16 5175   3.413   7.191   4.570
   93DIO    C17 5176   3.337   7.189   4.694
   93DIO    C18 5177   3.406   7.231   4.816
   93DIO    C19 5178   3.538   7.292   4.810
   93DIO     F6 5179   3.600   7.314   4.928
   93DIO    C20 5180   3.197   7.135   4.700
   93DIO     O3 5181   3.127   7.142   4.575
   93DIO    C21 5182   3.083   7.274   4.544
   93DIO    C22 5183   2.994   7.330   4.655
   93DIO    C23 5184   3.075   7.321   4.785
   93DIO     O4 5185   3.119   7.188   4.808
   93DIO    C24 5186   2.861   7.252   4.671
   93DIO    C25 5187   2.771   7.250   4.547
   93DIO    C26 5188   2.732   7.388   4.496
   93DIO     H1 5189   4.453   7.247   4.761
   93DIO     H2 5190   4.412   7.534   4.427
   93DIO     H3 5191   4.235   7.317   4.379
   93DIO     H4 5192   3.983   7.289   4.389
   93DIO     H5 5193   3.984   7.385   4.815
   93DIO     H6 5194   3.375   7.143   4.481
   93DIO     H7 5195   3.363   7.211   4.914
   93DIO     H8 5196   3.206   7.028   4.721
   93DIO     H9 5197   3.170   7.339   4.528
   93DIO    H10 5198   3.030   7.271   4.449
   93DIO    H11 5199   2.972   7.435   4.635
   93DIO    H12 5200   3.014   7.351   4.870
   93DIO    H13 5201   3.161   7.389   4.782
   93DIO    H14 5202   2.881   7.148   4.700
   93DIO    H15 5203   2.805   7.297   4.754
   93DIO    H16 5204   2.818   7.193   4.466
   93DIO    H17 5205   2.679   7.195   4.573
   93DIO    H18 5206   2.688   7.448   4.576
   93DIO    H19 5207   2.819   7.441   4.456
   93DIO    H20 5208   2.659   7.379   4.416
   94DIO     F1 5209   3.743   7.710   6.577
   94DIO     C1 5210   3.665   7.642   6.490
   94DIO     C2 5211   3.521   7.645   6.507
   94DIO     C3 5212   3.432   7.569   6.416
   94DIO     C4 5213   3.498   7.494   6.306
   94DIO     C5 5214   3.642   7.494   6.291
   94DIO     F2 5215   3.698   7.428   6.188
   94DIO     C6 5216   3.726   7.568   6.383
   94DIO     F3 5217   3.860   7.565   6.369
   94DIO     C7 5218   3.286   7.569   6.432
   94DIO     C8 5219   3.209   7.443   6.434
   94DIO     C9 5220   3.064   7.443   6.449
   94DIO    C10 5221   2.992   7.569   6.452
   94DIO    C11 5222   3.064   7.695   6.458
   94DIO    C12 5223   3.208   7.694   6.446
   94DIO     F4 5224   3.273   7.812   6.446
   94DIO     O1 5225   2.859   7.562   6.491
   94DIO    C13 5226   2.765   7.649   6.437
   94DIO     O2 5227   2.764   7.721   6.334
   94DIO    C14 5228   2.636   7.642   6.507
   94DIO    C15 5229   2.570   7.512   6.535
   94DIO     F5 5230   2.632   7.396   6.505
   94DIO    C16 5231   2.439   7.503   6.597
   94DIO    C17 5232   2.363   7.624   6.628
   94DIO    C18 5233   2.432   7.752   6.617
   94DIO    C19 5234   2.563   7.761   6.556
   94DIO     F6 5235   2.626   7.880   6.562
   94DIO    C20 5236   2.222   7.616   6.682
   94DIO     O3 5237   2.153   7.497   6.645
   94DIO    C21 5238   2.109   7.498   6.510
   94DIO    C22 5239   2.020   7.619   6.482
   94DIO    C23 5240   2.101   7.743   6.521
   94DIO     O4 5241   2.145   7.734   6.657
   94DIO    C24 5242   1.887   7.616   6.561
   94DIO    C25 5243   1.797   7.495   6.535
   94DIO    C26 5244   1.758   7.479   6.388
   94DIO     H1 5245   3.479   7.702   6.588
   94DIO     H2 5246   3.437   7.446   6.230
   94DIO     H3 5247   3.260   7.348   6.429
   94DIO     H4 5248   3.009   7.351   6.459
   94DIO     H5 5249   3.010   7.788   6.466
   94DIO     H6 5250   2.401   7.405   6.623
   94DIO     H7 5251   2.389   7.842   6.659
   94DIO     H8 5252   2.232   7.611   6.791
   94DIO     H9 5253   2.196   7.499   6.443
   94DIO    H10 5254   2.056   7.405   6.491
   94DIO    H11 5255   1.997   7.624   6.375
   94DIO    H12 5256   2.040   7.833   6.512
   94DIO    H13 5257   2.187   7.756   6.455
   94DIO    H14 5258   1.907   7.620   6.669
   94DIO    H15 5259   1.831   7.707   6.538
   94DIO    H16 5260   1.844   7.403   6.571
   94DIO    H17 5261   1.705   7.508   6.594
   94DIO    H18 5262   1.714   7.570   6.348
   94DIO    H19 5263   1.845   7.452   6.327
   94DIO    H20 5264   1.684   7.398   6.378
   95DIO     F1 5265   9.427   7.510   1.034
   95DIO     C1 5266   9.350   7.616   1.063
   95DIO     C2 5267   9.206   7.604   1.051
   95DIO     C3 5268   9.117   7.719   1.080
   95DIO     C4 5269   9.182   7.844   1.125
   95DIO     C5 5270   9.327   7.853   1.136
   95DIO     F2 5271   9.382   7.968   1.181
   95DIO     C6 5272   9.410   7.740   1.106
   95DIO     F3 5273   9.544   7.750   1.116
   95DIO     C7 5274   8.970   7.709   1.068
   95DIO     C8 5275   8.893   7.810   0.991
   95DIO     C9 5276   8.749   7.801   0.979
   95DIO    C10 5277   8.676   7.697   1.050
   95DIO    C11 5278   8.748   7.593   1.120
   95DIO    C12 5279   8.893   7.600   1.130
   95DIO     F4 5280   8.957   7.505   1.200
   95DIO     O1 5281   8.544   7.680   1.015
   95DIO    C13 5282   8.449   7.642   1.110
   95DIO     O2 5283   8.448   7.645   1.236
   95DIO    C14 5284   8.320   7.607   1.050
   95DIO    C15 5285   8.254   7.694   0.951
   95DIO     F5 5286   8.316   7.805   0.906
   95DIO    C16 5287   8.123   7.665   0.895
   95DIO    C17 5288   8.047   7.549   0.942
   95DIO    C18 5289   8.116   7.452   1.026
   95DIO    C19 5290   8.248   7.481   1.080
   95DIO     F6 5291   8.310   7.381   1.146
   95DIO    C20 5292   7.907   7.523   0.893
   95DIO     O3 5293   7.837   7.641   0.852
   95DIO    C21 5294   7.793   7.720   0.963
   95DIO    C22 5295   7.704   7.639   1.056
   95DIO    C23 5296   7.785   7.516   1.098
   95DIO     O4 5297   7.829   7.443   0.984
   95DIO    C24 5298   7.571   7.595   0.991
   95DIO    C25 5299   7.481   7.708   0.941
   95DIO    C26 5300   7.442   7.808   1.049
   95DIO     H1 5301   9.163   7.509   1.020
   95DIO     H2 5302   9.122   7.928   1.157
   95DIO     H3 5303   8.945   7.889   0.939
   95DIO     H4 5304   8.693   7.869   0.916
   95DIO     H5 5305   8.694   7.513   1.169
   95DIO     H6 5306   8.085   7.728   0.816
   95DIO     H7 5307   8.073   7.355   1.046
   95DIO     H8 5308   7.916   7.463   0.802
   95DIO     H9 5309   7.880   7.760   1.016
   95DIO    H10 5310   7.740   7.807   0.923
   95DIO    H11 5311   7.682   7.698   1.145
   95DIO    H12 5312   7.724   7.449   1.159
   95DIO    H13 5313   7.871   7.545   1.159
   95DIO    H14 5314   7.591   7.528   0.906
   95DIO    H15 5315   7.515   7.535   1.064
   95DIO    H16 5316   7.528   7.761   0.857
   95DIO    H17 5317   7.389   7.663   0.900
   95DIO    H18 5318   7.398   7.758   1.135
   95DIO    H19 5319   7.529   7.866   1.082
   95DIO    H20 5320   7.369   7.879   1.009
   96DIO     F1 5321   5.518   3.037   7.414
   96DIO     C1 5322   5.441   2.958   7.338
   96DIO     C2 5323   5.297   2.963   7.354
   96DIO     C3 5324   5.208   2.875   7.274
   96DIO     C4 5325   5.273   2.786   7.175
   96DIO     C5 5326   5.418   2.784   7.161
   96DIO     F2 5327   5.473   2.704   7.067
   96DIO     C6 5328   5.501   2.869   7.241
   96DIO     F3 5329   5.635   2.865   7.228
   96DIO     C7 5330   5.061   2.878   7.290
   96DIO     C8 5331   4.984   2.753   7.309
   96DIO     C9 5332   4.840   2.755   7.324
   96DIO    C10 5333   4.767   2.880   7.310
   96DIO    C11 5334   4.840   3.005   7.299
   96DIO    C12 5335   4.984   3.003   7.287
   96DIO     F4 5336   5.049   3.120   7.271
   96DIO     O1 5337   4.635   2.878   7.349
   96DIO    C13 5338   4.540   2.957   7.284
   96DIO     O2 5339   4.539   3.015   7.172
   96DIO    C14 5340   4.411   2.960   7.354
   96DIO    C15 5341   4.345   2.835   7.400
   96DIO     F5 5342   4.408   2.716   7.386
   96DIO    C16 5343   4.214   2.835   7.462
   96DIO    C17 5344   4.138   2.959   7.477
   96DIO    C18 5345   4.207   3.084   7.448
   96DIO    C19 5346   4.339   3.084   7.387
   96DIO     F6 5347   4.401   3.204   7.377
   96DIO    C20 5348   3.998   2.959   7.532
   96DIO     O3 5349   3.928   2.835   7.511
   96DIO    C21 5350   3.884   2.818   7.377
   96DIO    C22 5351   3.795   2.934   7.333
   96DIO    C23 5352   3.876   3.062   7.355
   96DIO     O4 5353   3.920   3.072   7.490
   96DIO    C24 5354   3.663   2.942   7.412
   96DIO    C25 5355   3.572   2.819   7.402
   96DIO    C26 5356   3.533   2.782   7.259
   96DIO     H1 5357   5.254   3.031   7.427
   96DIO     H2 5358   5.213   2.728   7.107
   96DIO     H3 5359   5.036   2.658   7.317
   96DIO     H4 5360   4.785   2.665   7.346
   96DIO     H5 5361   4.785   3.099   7.294
   96DIO     H6 5362   4.176   2.741   7.501
   96DIO     H7 5363   4.164   3.179   7.478
   96DIO     H8 5364   4.007   2.968   7.640
   96DIO     H9 5365   3.971   2.809   7.311
   96DIO    H10 5366   3.831   2.723   7.371
   96DIO    H11 5367   3.773   2.925   7.226
   96DIO    H12 5368   3.815   3.150   7.334
   96DIO    H13 5369   3.962   3.066   7.287
   96DIO    H14 5370   3.682   2.960   7.518
   96DIO    H15 5371   3.606   3.029   7.376
   96DIO    H16 5372   3.619   2.732   7.450
   96DIO    H17 5373   3.480   2.839   7.459
   96DIO    H18 5374   3.490   2.867   7.207
   96DIO    H19 5375   3.620   2.747   7.202
   96DIO    H20 5376   3.460   2.701   7.260
   97DIO     F1 5377   9.649   5.901   6.376
   97DIO     C1 5378   9.571   6.004   6.417
   97DIO     C2 5379   9.427   5.993   6.403
   97DIO     C3 5380   9.338   6.104   6.444
   97DIO     C4 5381   9.404   6.224   6.502
   97DIO     C5 5382   9.548   6.232   6.514
   97DIO     F2 5383   9.604   6.341   6.570
   97DIO     C6 5384   9.632   6.122   6.472
   97DIO     F3 5385   9.766   6.131   6.483
   97DIO     C7 5386   9.192   6.096   6.431
   97DIO     C8 5387   9.115   6.204   6.365
   97DIO     C9 5388   8.970   6.197   6.352
   97DIO    C10 5389   8.898   6.086   6.412
   97DIO    C11 5390   8.970   5.975   6.471
   97DIO    C12 5391   9.114   5.981   6.481
   97DIO     F4 5392   9.179   5.879   6.540
   97DIO     O1 5393   8.765   6.073   6.376
   97DIO    C13 5394   8.671   6.025   6.466
   97DIO     O2 5395   8.670   6.014   6.591
   97DIO    C14 5396   8.542   5.996   6.402
   97DIO    C15 5397   8.475   6.094   6.313
   97DIO     F5 5398   8.538   6.209   6.280
   97DIO    C16 5399   8.345   6.070   6.255
   97DIO    C17 5400   8.269   5.950   6.288
   97DIO    C18 5401   8.338   5.845   6.362
   97DIO    C19 5402   8.469   5.868   6.419
   97DIO     F6 5403   8.532   5.762   6.474
   97DIO    C20 5404   8.128   5.930   6.238
   97DIO     O3 5405   8.058   6.051   6.210
   97DIO    C21 5406   8.015   6.118   6.327
   97DIO    C22 5407   7.926   6.027   6.412
   97DIO    C23 5408   8.007   5.901   6.440
   97DIO     O4 5409   8.051   5.841   6.319
   97DIO    C24 5410   7.793   5.991   6.342
   97DIO    C25 5411   7.702   6.108   6.304
   97DIO    C26 5412   7.664   6.196   6.422
   97DIO     H1 5413   9.385   5.902   6.362
   97DIO     H2 5414   9.343   6.304   6.543
   97DIO     H3 5415   9.166   6.289   6.322
   97DIO     H4 5416   8.915   6.272   6.297
   97DIO     H5 5417   8.916   5.890   6.510
   97DIO     H6 5418   8.307   6.142   6.183
   97DIO     H7 5419   8.295   5.746   6.371
   97DIO     H8 5420   8.138   5.879   6.141
   97DIO     H9 5421   8.101   6.152   6.385
   97DIO    H10 5422   7.962   6.209   6.297
   97DIO    H11 5423   7.903   6.077   6.507
   97DIO    H12 5424   7.946   5.827   6.494
   97DIO    H13 5425   8.093   5.923   6.504
   97DIO    H14 5426   7.813   5.933   6.251
   97DIO    H15 5427   7.737   5.924   6.408
   97DIO    H16 5428   7.750   6.170   6.227
   97DIO    H17 5429   7.611   6.068   6.260
   97DIO    H18 5430   7.620   6.137   6.503
   97DIO    H19 5431   7.751   6.250   6.462
   97DIO    H20 5432   7.590   6.271   6.391
   98DIO     F1 5433   6.103   4.945   7.204
   98DIO     C1 5434   6.025   4.931   7.313
   98DIO     C2 5435   5.881   4.942   7.299
   98DIO     C3 5436   5.792   4.930   7.417
   98DIO     C4 5437   5.858   4.905   7.548
   98DIO     C5 5438   6.002   4.895   7.559
   98DIO     F2 5439   6.058   4.868   7.678
   98DIO     C6 5440   6.086   4.907   7.442
   98DIO     F3 5441   6.220   4.899   7.453
   98DIO     C7 5442   5.646   4.941   7.406
   98DIO     C8 5443   5.569   5.032   7.494
   98DIO     C9 5444   5.424   5.042   7.483
   98DIO    C10 5445   5.352   4.956   7.392
   98DIO    C11 5446   5.424   4.872   7.298
   98DIO    C12 5447   5.568   4.863   7.308
   98DIO     F4 5448   5.633   4.780   7.223
   98DIO     O1 5449   5.219   4.989   7.370
   98DIO    C13 5450   5.125   4.889   7.346
   98DIO     O2 5451   5.124   4.765   7.367
   98DIO    C14 5452   4.996   4.943   7.302
   98DIO    C15 5453   4.929   5.054   7.374
   98DIO     F5 5454   4.992   5.115   7.477
   98DIO    C16 5455   4.799   5.105   7.336
   98DIO    C17 5456   4.723   5.042   7.229
   98DIO    C18 5457   4.792   4.944   7.146
   98DIO    C19 5458   4.923   4.895   7.182
   98DIO     F6 5459   4.986   4.815   7.093
   98DIO    C20 5460   4.582   5.086   7.196
   98DIO     O3 5461   4.512   5.144   7.307
   98DIO    C21 5462   4.469   5.047   7.401
   98DIO    C22 5463   4.380   4.942   7.335
   98DIO    C23 5464   4.461   4.883   7.219
   98DIO     O4 5465   4.505   4.985   7.131
   98DIO    C24 5466   4.247   5.000   7.282
   98DIO    C25 5467   4.156   5.066   7.386
   98DIO    C26 5468   4.118   4.974   7.501
   98DIO     H1 5469   5.839   4.959   7.201
   98DIO     H2 5470   5.797   4.885   7.636
   98DIO     H3 5471   5.620   5.095   7.565
   98DIO     H4 5472   5.369   5.114   7.542
   98DIO     H5 5473   5.370   4.812   7.227
   98DIO     H6 5474   4.761   5.192   7.388
   98DIO     H7 5475   4.749   4.910   7.052
   98DIO     H8 5476   4.592   5.167   7.123
   98DIO     H9 5477   4.555   4.999   7.448
   98DIO    H10 5478   4.416   5.099   7.481
   98DIO    H11 5479   4.357   4.862   7.407
   98DIO    H12 5480   4.400   4.812   7.162
   98DIO    H13 5481   4.547   4.826   7.257
   98DIO    H14 5482   4.267   5.074   7.203
   98DIO    H15 5483   4.191   4.919   7.234
   98DIO    H16 5484   4.204   5.157   7.426
   98DIO    H17 5485   4.065   5.099   7.336
   98DIO    H18 5486   4.074   4.881   7.464
   98DIO    H19 5487   4.205   4.950   7.563
   98DIO    H20 5488   4.044   5.024   7.565
   99DIO     F1 5489   9.940   6.723   7.172
   99DIO     C1 5490   9.863   6.831   7.149
   99DIO     C2 5491   9.719   6.815   7.144
   99DIO     C3 5492   9.630   6.930   7.116
   99DIO     C4 5493   9.695   7.062   7.097
   99DIO     C5 5494   9.840   7.075   7.103
   99DIO     F2 5495   9.895   7.197   7.090
   99DIO     C6 5496   9.923   6.960   7.130
   99DIO     F3 5497  10.057   6.974   7.134
   99DIO     C7 5498   9.483   6.916   7.110
   99DIO     C8 5499   9.406   6.969   6.995
   99DIO     C9 5500   9.262   6.955   6.989
   99DIO    C10 5501   9.189   6.897   7.100
   99DIO    C11 5502   9.261   6.837   7.210
   99DIO    C12 5503   9.406   6.848   7.215
   99DIO     F4 5504   9.470   6.796   7.322
   99DIO     O1 5505   9.057   6.866   7.077
   99DIO    C13 5506   8.962   6.876   7.178
   99DIO     O2 5507   8.961   6.936   7.289
   99DIO    C14 5508   8.833   6.817   7.141
   99DIO    C15 5509   8.767   6.848   7.013
   99DIO     F5 5510   8.829   6.925   6.922
   99DIO    C16 5511   8.636   6.796   6.978
   99DIO    C17 5512   8.560   6.715   7.072
   99DIO    C18 5513   8.629   6.669   7.192
   99DIO    C19 5514   8.761   6.720   7.227
   99DIO     F6 5515   8.823   6.661   7.331
   99DIO    C20 5516   8.420   6.670   7.042
   99DIO     O3 5517   8.350   6.755   6.951
   99DIO    C21 5518   8.306   6.876   7.011
   99DIO    C22 5519   8.217   6.848   7.132
   99DIO    C23 5520   8.298   6.759   7.226
   99DIO     O4 5521   8.342   6.641   7.159
   99DIO    C24 5522   8.084   6.779   7.094
   99DIO    C25 5523   7.994   6.856   6.998
   99DIO    C26 5524   7.955   6.994   7.047
   99DIO     H1 5525   9.676   6.716   7.160
   99DIO     H2 5526   9.635   7.151   7.087
   99DIO     H3 5527   9.458   7.015   6.912
   99DIO     H4 5528   9.206   6.987   6.901
   99DIO     H5 5529   9.207   6.788   7.290
   99DIO     H6 5530   8.598   6.816   6.878
   99DIO     H7 5531   8.586   6.591   7.255
   99DIO     H8 5532   8.429   6.574   6.989
   99DIO     H9 5533   8.393   6.937   7.041
   99DIO    H10 5534   8.253   6.935   6.936
   99DIO    H11 5535   8.195   6.942   7.184
   99DIO    H12 5536   8.237   6.727   7.311
   99DIO    H13 5537   8.384   6.813   7.267
   99DIO    H14 5538   8.104   6.680   7.051
   99DIO    H15 5539   8.028   6.760   7.187
   99DIO    H16 5540   8.041   6.863   6.899
   99DIO    H17 5541   7.902   6.797   6.983
   99DIO    H18 5542   7.911   6.990   7.147
   99DIO    H19 5543   8.042   7.061   7.050
   99DIO    H20 5544   7.882   7.039   6.979
  100DIO     F1 5545   6.868   8.057   5.817
  100DIO     C1 5546   6.790   8.052   5.927
  100DIO     C2 5547   6.646   8.061   5.913
  100DIO     C3 5548   6.557   8.058   6.031
  100DIO     C4 5549   6.623   8.043   6.163
  100DIO     C5 5550   6.767   8.034   6.175
  100DIO     F2 5551   6.822   8.017   6.296
  100DIO     C6 5552   6.851   8.038   6.057
  100DIO     F3 5553   6.984   8.031   6.070
  100DIO     C7 5554   6.411   8.069   6.019
  100DIO     C8 5555   6.334   8.166   6.100
  100DIO     C9 5556   6.189   8.176   6.089
  100DIO    C10 5557   6.116   8.083   6.004
  100DIO    C11 5558   6.189   7.991   5.917
  100DIO    C12 5559   6.333   7.984   5.927
  100DIO     F4 5560   6.398   7.894   5.850
  100DIO     O1 5561   5.984   8.113   5.979
  100DIO    C13 5562   5.890   8.012   5.963
  100DIO     O2 5563   5.889   7.890   5.994
  100DIO    C14 5564   5.760   8.063   5.915
  100DIO    C15 5565   5.694   8.179   5.978
  100DIO     F5 5566   5.757   8.248   6.076
  100DIO    C16 5567   5.563   8.227   5.937
  100DIO    C17 5568   5.488   8.156   5.835
  100DIO    C18 5569   5.556   8.052   5.759
  100DIO    C19 5570   5.688   8.005   5.800
  100DIO     F6 5571   5.750   7.919   5.717
  100DIO    C20 5572   5.347   8.197   5.799
  100DIO     O3 5573   5.277   8.263   5.905
  100DIO    C21 5574   5.233   8.174   6.006
  100DIO    C22 5575   5.145   8.064   5.948
  100DIO    C23 5576   5.225   7.996   5.838
  100DIO     O4 5577   5.270   8.091   5.741
  100DIO    C24 5578   5.012   8.118   5.891
  100DIO    C25 5579   4.921   8.192   5.990
  100DIO    C26 5580   4.883   8.109   6.111
  100DIO     H1 5581   6.603   8.070   5.814
  100DIO     H2 5582   6.562   8.031   6.253
  100DIO     H3 5583   6.385   8.235   6.166
  100DIO     H4 5584   6.134   8.252   6.142
  100DIO     H5 5585   6.134   7.926   5.850
  100DIO     H6 5586   5.525   8.318   5.982
  100DIO     H7 5587   5.513   8.011   5.669
  100DIO     H8 5588   5.357   8.272   5.719
  100DIO     H9 5589   5.320   8.130   6.057
  100DIO    H10 5590   5.181   8.232   6.082
  100DIO    H11 5591   5.122   7.990   6.026
  100DIO    H12 5592   5.164   7.922   5.786
  100DIO    H13 5593   5.311   7.943   5.880
  100DIO    H14 5594   5.032   8.186   5.806
  100DIO    H15 5595   4.955   8.034   5.849
  100DIO    H16 5596   4.968   8.285   6.022
  100DIO    H17 5597   4.829   8.221   5.937
  100DIO    H18 5598   4.839   8.014   6.082
  100DIO    H19 5599   4.969   8.090   6.175
  100DIO    H20 5600   4.809   8.163   6.171
  101DIO     F1 5601   9.955   5.235   1.647
  101DIO     C1 5602   9.877   5.291   1.742
  101DIO     C2 5603   9.733   5.291   1.725
  101DIO     C3 5604   9.644   5.353   1.826
  101DIO     C4 5605   9.710   5.412   1.945
  101DIO     C5 5606   9.854   5.411   1.960
  101DIO     F2 5607   9.910   5.462   2.072
  101DIO     C6 5608   9.938   5.350   1.859
  101DIO     F3 5609  10.072   5.350   1.874
  101DIO     C7 5610   9.498   5.355   1.810
  101DIO     C8 5611   9.421   5.480   1.826
  101DIO     C9 5612   9.276   5.482   1.811
  101DIO    C10 5613   9.204   5.358   1.790
  101DIO    C11 5614   9.276   5.235   1.767
  101DIO    C12 5615   9.420   5.233   1.780
  101DIO     F4 5616   9.485   5.116   1.763
  101DIO     O1 5617   9.071   5.371   1.753
  101DIO    C13 5618   8.977   5.277   1.794
  101DIO     O2 5619   8.976   5.191   1.886
  101DIO    C14 5620   8.848   5.294   1.726
  101DIO    C15 5621   8.781   5.426   1.716
  101DIO     F5 5622   8.844   5.536   1.761
  101DIO    C16 5623   8.651   5.443   1.656
  101DIO    C17 5624   8.575   5.328   1.609
  101DIO    C18 5625   8.644   5.199   1.602
  101DIO    C19 5626   8.775   5.182   1.661
  101DIO     F6 5627   8.838   5.065   1.638
  101DIO    C20 5628   8.434   5.343   1.556
  101DIO     O3 5629   8.364   5.456   1.609
  101DIO    C21 5630   8.321   5.436   1.743
  101DIO    C22 5631   8.232   5.312   1.753
  101DIO    C23 5632   8.313   5.195   1.698
  101DIO     O4 5633   8.357   5.223   1.565
  101DIO    C24 5634   8.099   5.327   1.676
  101DIO    C25 5635   8.008   5.442   1.719
  101DIO    C26 5636   7.970   5.439   1.866
  101DIO     H1 5637   9.691   5.245   1.637
  101DIO     H2 5638   9.649   5.450   2.027
  101DIO     H3 5639   9.472   5.574   1.843
  101DIO     H4 5640   9.221   5.575   1.814
  101DIO     H5 5641   9.222   5.144   1.746
  101DIO     H6 5642   8.613   5.544   1.644
  101DIO     H7 5643   8.601   5.116   1.548
  101DIO     H8 5644   8.444   5.363   1.448
  101DIO     H9 5645   8.407   5.427   1.809
  101DIO    H10 5646   8.268   5.526   1.775
  101DIO    H11 5647   8.209   5.293   1.859
  101DIO    H12 5648   8.252   5.104   1.694
  101DIO    H13 5649   8.399   5.173   1.762
  101DIO    H14 5650   8.119   5.337   1.568
  101DIO    H15 5651   8.043   5.233   1.687
  101DIO    H16 5652   8.056   5.538   1.695
  101DIO    H17 5653   7.917   5.438   1.659
  101DIO    H18 5654   7.926   5.343   1.893
  101DIO    H19 5655   8.057   5.457   1.930
  101DIO    H20 5656   7.896   5.517   1.887
  102DIO     F1 5657   3.890   8.708   3.233
  102DIO     C1 5658   3.812   8.799   3.172
  102DIO     C2 5659   3.668   8.782   3.173
  102DIO     C3 5660   3.579   8.879   3.105
  102DIO     C4 5661   3.645   8.994   3.038
  102DIO     C5 5662   3.789   9.009   3.039
  102DIO     F2 5663   3.845   9.117   2.981
  102DIO     C6 5664   3.873   8.912   3.105
  102DIO     F3 5665   4.007   8.926   3.104
  102DIO     C7 5666   3.433   8.863   3.103
  102DIO     C8 5667   3.356   8.871   2.977
  102DIO     C9 5668   3.211   8.855   2.976
  102DIO    C10 5669   3.139   8.842   3.101
  102DIO    C11 5670   3.211   8.827   3.226
  102DIO    C12 5671   3.355   8.840   3.227
  102DIO     F4 5672   3.420   8.831   3.345
  102DIO     O1 5673   3.006   8.805   3.091
  102DIO    C13 5674   2.912   8.852   3.182
  102DIO     O2 5675   2.911   8.949   3.262
  102DIO    C14 5676   2.783   8.783   3.170
  102DIO    C15 5677   2.717   8.765   3.039
  102DIO     F5 5678   2.779   8.803   2.925
  102DIO    C16 5679   2.586   8.703   3.025
  102DIO    C17 5680   2.510   8.663   3.143
  102DIO    C18 5681   2.579   8.665   3.272
  102DIO    C19 5682   2.710   8.725   3.285
  102DIO     F6 5683   2.773   8.709   3.404
  102DIO    C20 5684   2.369   8.610   3.131
  102DIO     O3 5685   2.300   8.656   3.015
  102DIO    C21 5686   2.256   8.791   3.027
  102DIO    C22 5687   2.167   8.809   3.149
  102DIO    C23 5688   2.248   8.760   3.270
  102DIO     O4 5689   2.292   8.626   3.251
  102DIO    C24 5690   2.034   8.730   3.140
  102DIO    C25 5691   1.944   8.766   3.022
  102DIO    C26 5692   1.905   8.913   3.016
  102DIO     H1 5693   3.626   8.697   3.224
  102DIO     H2 5694   3.584   9.073   2.995
  102DIO     H3 5695   3.407   8.883   2.883
  102DIO     H4 5696   3.156   8.853   2.883
  102DIO     H5 5697   3.157   8.812   3.318
  102DIO     H6 5698   2.548   8.685   2.925
  102DIO     H7 5699   2.536   8.616   3.358
  102DIO     H8 5700   2.379   8.501   3.118
  102DIO     H9 5701   2.343   8.857   3.032
  102DIO    H10 5702   2.203   8.817   2.935
  102DIO    H11 5703   2.144   8.915   3.163
  102DIO    H12 5704   2.187   8.763   3.361
  102DIO    H13 5705   2.334   8.826   3.288
  102DIO    H14 5706   2.054   8.622   3.136
  102DIO    H15 5707   1.978   8.747   3.233
  102DIO    H16 5708   1.991   8.737   2.927
  102DIO    H17 5709   1.852   8.706   3.030
  102DIO    H18 5710   1.861   8.946   3.111
  102DIO    H19 5711   1.992   8.976   2.994
  102DIO    H20 5712   1.831   8.929   2.937
  103DIO     F1 5713   8.397   5.752   4.622
  103DIO     C1 5714   8.319   5.648   4.659
  103DIO     C2 5715   8.175   5.665   4.662
  103DIO     C3 5716   8.086   5.554   4.704
  103DIO     C4 5717   8.152   5.426   4.740
  103DIO     C5 5718   8.296   5.412   4.736
  103DIO     F2 5719   8.352   5.293   4.765
  103DIO     C6 5720   8.380   5.522   4.695
  103DIO     F3 5721   8.514   5.508   4.693
  103DIO     C7 5722   7.940   5.569   4.709
  103DIO     C8 5723   7.863   5.531   4.829
  103DIO     C9 5724   7.718   5.546   4.834
  103DIO    C10 5725   7.646   5.589   4.716
  103DIO    C11 5726   7.718   5.635   4.599
  103DIO    C12 5727   7.862   5.623   4.595
  103DIO     F4 5728   7.927   5.660   4.483
  103DIO     O1 5729   7.513   5.623   4.735
  103DIO    C13 5730   7.419   5.600   4.635
  103DIO     O2 5731   7.418   5.525   4.534
  103DIO    C14 5732   7.290   5.663   4.664
  103DIO    C15 5733   7.224   5.649   4.796
  103DIO     F5 5734   7.286   5.584   4.896
  103DIO    C16 5735   7.093   5.705   4.824
  103DIO    C17 5736   7.017   5.773   4.720
  103DIO    C18 5737   7.086   5.803   4.595
  103DIO    C19 5738   7.217   5.748   4.567
  103DIO     F6 5739   7.280   5.793   4.456
  103DIO    C20 5740   6.876   5.822   4.744
  103DIO     O3 5741   6.807   5.749   4.846
  103DIO    C21 5742   6.763   5.621   4.801
  103DIO    C22 5743   6.674   5.634   4.678
  103DIO    C23 5744   6.755   5.710   4.573
  103DIO     O4 5745   6.799   5.835   4.625
  103DIO    C24 5746   6.541   5.707   4.706
  103DIO    C25 5747   6.451   5.643   4.812
  103DIO    C26 5748   6.412   5.500   4.781
  103DIO     H1 5749   8.133   5.760   4.633
  103DIO     H2 5750   8.091   5.339   4.762
  103DIO     H3 5751   7.914   5.496   4.918
  103DIO     H4 5752   7.663   5.525   4.925
  103DIO     H5 5753   7.664   5.672   4.513
  103DIO     H6 5754   7.055   5.698   4.925
  103DIO     H7 5755   7.043   5.872   4.523
  103DIO     H8 5756   6.886   5.924   4.784
  103DIO     H9 5757   6.850   5.558   4.780
  103DIO    H10 5758   6.710   5.573   4.884
  103DIO    H11 5759   6.651   5.534   4.639
  103DIO    H12 5760   6.694   5.730   4.484
  103DIO    H13 5761   6.841   5.651   4.539
  103DIO    H14 5762   6.561   5.811   4.737
  103DIO    H15 5763   6.485   5.714   4.612
  103DIO    H16 5764   6.498   5.648   4.911
  103DIO    H17 5765   6.359   5.703   4.819
  103DIO    H18 5766   6.368   5.491   4.681
  103DIO    H19 5767   6.499   5.433   4.787
  103DIO    H20 5768   6.338   5.464   4.854
  104DIO     F1 5769   8.288   0.136   0.653
  104DIO     C1 5770   8.210   0.151   0.762
  104DIO     C2 5771   8.066   0.158   0.746
  104DIO     C3 5772   7.977   0.177   0.863
  104DIO     C4 5773   8.043   0.186   0.996
  104DIO     C5 5774   8.187   0.179   1.009
  104DIO     F2 5775   8.243   0.184   1.131
  104DIO     C6 5776   8.271   0.161   0.892
  104DIO     F3 5777   8.405   0.156   0.906
  104DIO     C7 5778   7.831   0.185   0.849
  104DIO     C8 5779   7.754   0.295   0.911
  104DIO     C9 5780   7.609   0.302   0.898
  104DIO    C10 5781   7.537   0.196   0.832
  104DIO    C11 5782   7.609   0.090   0.763
  104DIO    C12 5783   7.753   0.084   0.774
  104DIO     F4 5784   7.818  -0.018   0.714
  104DIO     O1 5785   7.404   0.221   0.802
  104DIO    C13 5786   7.310   0.119   0.804
  104DIO     O2 5787   7.309   0.004   0.857
  104DIO    C14 5788   7.181   0.160   0.748
  104DIO    C15 5789   7.114   0.286   0.789
  104DIO     F5 5790   7.177   0.371   0.873
  104DIO    C16 5791   6.984   0.325   0.740
  104DIO    C17 5792   6.908   0.236   0.652
  104DIO    C18 5793   6.977   0.120   0.597
  104DIO    C19 5794   7.108   0.082   0.645
  104DIO     F6 5795   7.171  -0.018   0.580
  104DIO    C20 5796   6.767   0.270   0.609
  104DIO     O3 5797   6.697   0.355   0.701
  104DIO    C21 5798   6.654   0.285   0.817
  104DIO    C22 5799   6.565   0.167   0.780
  104DIO    C23 5800   6.646   0.080   0.684
  104DIO     O4 5801   6.690   0.156   0.572
  104DIO    C24 5802   6.432   0.210   0.714
  104DIO    C25 5803   6.341   0.300   0.797
  104DIO    C26 5804   6.303   0.241   0.932
  104DIO     H1 5805   8.024   0.149   0.647
  104DIO     H2 5806   7.982   0.190   1.086
  104DIO     H3 5807   7.805   0.374   0.963
  104DIO     H4 5808   7.554   0.387   0.936
  104DIO     H5 5809   7.555   0.014   0.709
  104DIO     H6 5810   6.946   0.423   0.767
  104DIO     H7 5811   6.934   0.063   0.515
  104DIO     H8 5812   6.777   0.330   0.517
  104DIO     H9 5813   6.740   0.251   0.875
  104DIO    H10 5814   6.601   0.357   0.881
  104DIO    H11 5815   6.542   0.109   0.870
  104DIO    H12 5816   6.585  -0.003   0.646
  104DIO    H13 5817   6.732   0.035   0.735
  104DIO    H14 5818   6.452   0.261   0.618
  104DIO    H15 5819   6.376   0.119   0.688
  104DIO    H16 5820   6.389   0.398   0.812
  104DIO    H17 5821   6.250   0.319   0.740
  104DIO    H18 5822   6.259   0.142   0.921
  104DIO    H19 5823   6.390   0.234   0.999
  104DIO    H20 5824   6.229   0.305   0.982
  105DIO     F1 5825   5.839   9.842   3.123
  105DIO     C1 5826   5.762   9.733   3.141
  105DIO     C2 5827   5.617   9.749   3.147
  105DIO     C3 5828   5.529   9.633   3.169
  105DIO     C4 5829   5.594   9.500   3.181
  105DIO     C5 5830   5.738   9.487   3.174
  105DIO     F2 5831   5.794   9.365   3.182
  105DIO     C6 5832   5.822   9.603   3.154
  105DIO     F3 5833   5.956   9.590   3.149
  105DIO     C7 5834   5.382   9.647   3.176
  105DIO     C8 5835   5.305   9.587   3.288
  105DIO     C9 5836   5.160   9.601   3.295
  105DIO    C10 5837   5.088   9.665   3.187
  105DIO    C11 5838   5.160   9.731   3.080
  105DIO    C12 5839   5.304   9.720   3.074
  105DIO     F4 5840   5.369   9.777   2.971
  105DIO     O1 5841   4.956   9.695   3.212
  105DIO    C13 5842   4.861   9.690   3.110
  105DIO     O2 5843   4.860   9.635   2.996
  105DIO    C14 5844   4.732   9.747   3.150
  105DIO    C15 5845   4.666   9.709   3.276
  105DIO     F5 5846   4.728   9.627   3.363
  105DIO    C16 5847   4.535   9.759   3.314
  105DIO    C17 5848   4.459   9.845   3.224
  105DIO    C18 5849   4.528   9.898   3.106
  105DIO    C19 5850   4.660   9.848   3.069
  105DIO     F6 5851   4.722   9.912   2.968
  105DIO    C20 5852   4.318   9.889   3.257
  105DIO     O3 5853   4.249   9.799   3.343
  105DIO    C21 5854   4.205   9.681   3.276
  105DIO    C22 5855   4.116   9.716   3.157
  105DIO    C23 5856   4.197   9.810   3.068
  105DIO     O4 5857   4.241   9.923   3.141
  105DIO    C24 5858   3.983   9.783   3.198
  105DIO    C25 5859   3.893   9.701   3.291
  105DIO    C26 5860   3.854   9.565   3.235
  105DIO     H1 5861   5.575   9.848   3.136
  105DIO     H2 5862   5.534   9.411   3.187
  105DIO     H3 5863   5.357   9.537   3.369
  105DIO     H4 5864   5.105   9.565   3.381
  105DIO     H5 5865   5.106   9.783   3.002
  105DIO     H6 5866   4.497   9.735   3.413
  105DIO     H7 5867   4.485   9.978   3.048
  105DIO     H8 5868   4.328   9.982   3.314
  105DIO     H9 5869   4.292   9.622   3.244
  105DIO    H10 5870   4.152   9.619   3.349
  105DIO    H11 5871   4.094   9.624   3.101
  105DIO    H12 5872   4.136   9.845   2.985
  105DIO    H13 5873   4.283   9.758   3.024
  105DIO    H14 5874   4.003   9.879   3.247
  105DIO    H15 5875   3.927   9.806   3.107
  105DIO    H16 5876   3.940   9.688   3.389
  105DIO    H17 5877   3.801   9.759   3.309
  105DIO    H18 5878   3.810   9.574   3.135
  105DIO    H19 5879   3.941   9.498   3.229
  105DIO    H20 5880   3.781   9.517   3.300
  106DIO     F1 5881   3.906   7.035   0.825
  106DIO     C1 5882   3.829   7.100   0.737
  106DIO     C2 5883   3.685   7.085   0.743
  106DIO     C3 5884   3.596   7.153   0.646
  106DIO     C4 5885   3.661   7.239   0.545
  106DIO     C5 5886   3.806   7.252   0.540
  106DIO     F2 5887   3.861   7.335   0.449
  106DIO     C6 5888   3.889   7.184   0.636
  106DIO     F3 5889   4.023   7.197   0.630
  106DIO     C7 5890   3.449   7.137   0.651
  106DIO     C8 5891   3.372   7.102   0.530
  106DIO     C9 5892   3.228   7.087   0.534
  106DIO    C10 5893   3.155   7.117   0.656
  106DIO    C11 5894   3.227   7.145   0.778
  106DIO    C12 5895   3.372   7.157   0.775
  106DIO     F4 5896   3.436   7.189   0.889
  106DIO     O1 5897   3.023   7.078   0.659
  106DIO    C13 5898   2.928   7.153   0.729
  106DIO     O2 5899   2.927   7.272   0.771
  106DIO    C14 5900   2.799   7.085   0.740
  106DIO    C15 5901   2.733   7.023   0.623
  106DIO     F5 5902   2.795   7.020   0.504
  106DIO    C16 5903   2.602   6.960   0.631
  106DIO    C17 5904   2.526   6.963   0.756
  106DIO    C18 5905   2.595   7.008   0.876
  106DIO    C19 5906   2.727   7.069   0.868
  106DIO     F6 5907   2.789   7.095   0.985
  106DIO    C20 5908   2.386   6.909   0.763
  106DIO     O3 5909   2.316   6.912   0.638
  106DIO    C21 5910   2.272   7.043   0.603
  106DIO    C22 5911   2.183   7.102   0.712
  106DIO    C23 5912   2.264   7.097   0.842
  106DIO     O4 5913   2.308   6.965   0.870
  106DIO    C24 5914   2.050   7.025   0.730
  106DIO    C25 5915   1.960   7.018   0.607
  106DIO    C26 5916   1.921   7.155   0.552
  106DIO     H1 5917   3.642   7.022   0.821
  106DIO     H2 5918   3.601   7.298   0.478
  106DIO     H3 5919   3.424   7.081   0.437
  106DIO     H4 5920   3.172   7.053   0.447
  106DIO     H5 5921   3.173   7.162   0.870
  106DIO     H6 5922   2.564   6.909   0.544
  106DIO     H7 5923   2.552   6.992   0.975
  106DIO     H8 5924   2.395   6.802   0.788
  106DIO     H9 5925   2.359   7.108   0.586
  106DIO    H10 5926   2.219   7.036   0.508
  106DIO    H11 5927   2.161   7.206   0.689
  106DIO    H12 5928   2.203   7.130   0.927
  106DIO    H13 5929   2.350   7.165   0.837
  106DIO    H14 5930   2.070   6.922   0.763
  106DIO    H15 5931   1.994   7.072   0.812
  106DIO    H16 5932   2.007   6.959   0.528
  106DIO    H17 5933   1.868   6.965   0.635
  106DIO    H18 5934   1.877   7.218   0.629
  106DIO    H19 5935   2.008   7.207   0.509
  106DIO    H20 5936   1.848   7.143   0.472
  107DIO     F1 5937   4.870   5.365   8.049
  107DIO     C1 5938   4.793   5.440   8.130
  107DIO     C2 5939   4.649   5.436   8.113
  107DIO     C3 5940   4.560   5.519   8.198
  107DIO     C4 5941   4.625   5.602   8.302
  107DIO     C5 5942   4.770   5.604   8.316
  107DIO     F2 5943   4.825   5.678   8.414
  107DIO     C6 5944   4.853   5.523   8.231
  107DIO     F3 5945   4.987   5.526   8.245
  107DIO     C7 5946   4.414   5.517   8.182
  107DIO     C8 5947   4.336   5.643   8.170
  107DIO     C9 5948   4.192   5.642   8.155
  107DIO    C10 5949   4.119   5.516   8.162
  107DIO    C11 5950   4.192   5.390   8.166
  107DIO    C12 5951   4.336   5.392   8.179
  107DIO     F4 5952   4.401   5.274   8.188
  107DIO     O1 5953   3.987   5.520   8.123
  107DIO    C13 5954   3.892   5.438   8.183
  107DIO     O2 5955   3.892   5.374   8.292
  107DIO    C14 5956   3.763   5.439   8.114
  107DIO    C15 5957   3.697   5.566   8.075
  107DIO     F5 5958   3.760   5.684   8.095
  107DIO    C16 5959   3.566   5.569   8.012
  107DIO    C17 5960   3.490   5.447   7.991
  107DIO    C18 5961   3.559   5.320   8.013
  107DIO    C19 5962   3.691   5.316   8.074
  107DIO     F6 5963   3.753   5.197   8.078
  107DIO    C20 5964   3.350   5.450   7.937
  107DIO     O3 5965   3.280   5.572   7.964
  107DIO    C21 5966   3.236   5.581   8.099
  107DIO    C22 5967   3.147   5.463   8.136
  107DIO    C23 5968   3.228   5.337   8.107
  107DIO     O4 5969   3.272   5.335   7.972
  107DIO    C24 5970   3.015   5.460   8.057
  107DIO    C25 5971   2.924   5.582   8.074
  107DIO    C26 5972   2.886   5.611   8.218
  107DIO     H1 5973   4.606   5.372   8.037
  107DIO     H2 5974   4.565   5.657   8.373
  107DIO     H3 5975   4.388   5.738   8.167
  107DIO     H4 5976   4.137   5.733   8.137
  107DIO     H5 5977   4.137   5.297   8.166
  107DIO     H6 5978   3.528   5.665   7.979
  107DIO     H7 5979   3.516   5.227   7.978
  107DIO     H8 5980   3.359   5.446   7.827
  107DIO     H9 5981   3.323   5.587   8.165
  107DIO    H10 5982   3.184   5.677   8.110
  107DIO    H11 5983   3.125   5.467   8.243
  107DIO    H12 5984   3.167   5.247   8.124
  107DIO    H13 5985   3.314   5.329   8.175
  107DIO    H14 5986   3.035   5.447   7.950
  107DIO    H15 5987   2.958   5.371   8.088
  107DIO    H16 5988   2.971   5.671   8.030
  107DIO    H17 5989   2.832   5.565   8.016
  107DIO    H18 5990   2.842   5.523   8.266
  107DIO    H19 5991   2.972   5.643   8.277
  107DIO    H20 5992   2.812   5.692   8.222
  108DIO     F1 5993   9.734   0.405   1.499
  108DIO     C1 5994   9.657   0.308   1.551
  108DIO     C2 5995   9.513   0.325   1.552
  108DIO     C3 5996   9.424   0.222   1.610
  108DIO     C4 5997   9.489   0.101   1.665
  108DIO     C5 5998   9.634   0.086   1.663
  108DIO     F2 5999   9.689  -0.027   1.710
  108DIO     C6 6000   9.717   0.189   1.606
  108DIO     F3 6001   9.851   0.175   1.606
  108DIO     C7 6002   9.277   0.238   1.613
  108DIO     C8 6003   9.200   0.218   1.738
  108DIO     C9 6004   9.056   0.233   1.740
  108DIO    C10 6005   8.983   0.258   1.617
  108DIO    C11 6006   9.055   0.285   1.494
  108DIO    C12 6007   9.200   0.273   1.492
  108DIO     F4 6008   9.264   0.294   1.376
  108DIO     O1 6009   8.851   0.295   1.631
  108DIO    C13 6010   8.756   0.257   1.536
  108DIO     O2 6011   8.755   0.168   1.447
  108DIO    C14 6012   8.627   0.324   1.555
  108DIO    C15 6013   8.561   0.329   1.687
  108DIO     F5 6014   8.623   0.280   1.796
  108DIO    C16 6015   8.430   0.389   1.707
  108DIO    C17 6016   8.354   0.440   1.593
  108DIO    C18 6017   8.423   0.452   1.465
  108DIO    C19 6018   8.555   0.393   1.446
  108DIO     F6 6019   8.617   0.420   1.329
  108DIO    C20 6020   8.214   0.493   1.610
  108DIO     O3 6021   8.144   0.435   1.721
  108DIO    C21 6022   8.100   0.302   1.696
  108DIO    C22 6023   8.011   0.296   1.573
  108DIO    C23 6024   8.092   0.356   1.457
  108DIO     O4 6025   8.136   0.488   1.490
  108DIO    C24 6026   7.878   0.373   1.589
  108DIO    C25 6027   7.788   0.326   1.704
  108DIO    C26 6028   7.749   0.179   1.695
  108DIO     H1 6029   9.470   0.415   1.509
  108DIO     H2 6030   9.429   0.018   1.700
  108DIO     H3 6031   9.252   0.197   1.830
  108DIO     H4 6032   9.000   0.226   1.833
  108DIO     H5 6033   9.001   0.310   1.404
  108DIO     H6 6034   8.392   0.397   1.808
  108DIO     H7 6035   8.380   0.509   1.384
  108DIO     H8 6036   8.223   0.599   1.634
  108DIO     H9 6037   8.187   0.236   1.685
  108DIO    H10 6038   8.047   0.267   1.785
  108DIO    H11 6039   7.989   0.192   1.549
  108DIO    H12 6040   8.031   0.363   1.367
  108DIO    H13 6041   8.178   0.293   1.433
  108DIO    H14 6042   7.898   0.480   1.604
  108DIO    H15 6043   7.822   0.366   1.496
  108DIO    H16 6044   7.835   0.346   1.800
  108DIO    H17 6045   7.696   0.386   1.702
  108DIO    H18 6046   7.705   0.156   1.597
  108DIO    H19 6047   7.836   0.114   1.711
  108DIO    H20 6048   7.676   0.155   1.772
  109DIO     F1 6049   8.186   8.616   8.019
  109DIO     C1 6050   8.108   8.715   8.067
  109DIO     C2 6051   7.964   8.706   8.053
  109DIO     C3 6052   7.875   8.813   8.103
  109DIO     C4 6053   7.941   8.929   8.169
  109DIO     C5 6054   8.085   8.935   8.182
  109DIO     F2 6055   8.140   9.040   8.247
  109DIO     C6 6056   8.169   8.829   8.132
  109DIO     F3 6057   8.303   8.837   8.144
  109DIO     C7 6058   7.729   8.806   8.088
  109DIO     C8 6059   7.652   8.919   8.032
  109DIO     C9 6060   7.507   8.912   8.018
  109DIO    C10 6061   7.434   8.798   8.069
  109DIO    C11 6062   7.507   8.682   8.119
  109DIO    C12 6063   7.651   8.688   8.130
  109DIO     F4 6064   7.716   8.581   8.181
  109DIO     O1 6065   7.302   8.787   8.032
  109DIO    C13 6066   7.208   8.732   8.118
  109DIO     O2 6067   7.207   8.712   8.242
  109DIO    C14 6068   7.079   8.709   8.052
  109DIO    C15 6069   7.012   8.813   7.971
  109DIO     F5 6070   7.075   8.930   7.947
  109DIO    C16 6071   6.882   8.794   7.911
  109DIO    C17 6072   6.806   8.672   7.935
  109DIO    C18 6073   6.875   8.561   8.001
  109DIO    C19 6074   7.006   8.580   8.060
  109DIO     F6 6075   7.069   8.469   8.106
  109DIO    C20 6076   6.665   8.655   7.883
  109DIO     O3 6077   6.595   8.779   7.865
  109DIO    C21 6078   6.552   8.836   7.987
  109DIO    C22 6079   6.463   8.739   8.064
  109DIO    C23 6080   6.544   8.611   8.083
  109DIO     O4 6081   6.588   8.560   7.958
  109DIO    C24 6082   6.330   8.708   7.992
  109DIO    C25 6083   6.239   8.828   7.964
  109DIO    C26 6084   6.201   8.907   8.088
  109DIO     H1 6085   7.921   8.618   8.005
  109DIO     H2 6086   7.880   9.005   8.216
  109DIO     H3 6087   7.703   9.007   7.995
  109DIO     H4 6088   7.452   8.991   7.969
  109DIO     H5 6089   7.453   8.595   8.152
  109DIO     H6 6090   6.843   8.871   7.845
  109DIO     H7 6091   6.832   8.462   8.002
  109DIO     H8 6092   6.675   8.612   7.783
  109DIO     H9 6093   6.638   8.865   8.047
  109DIO    H10 6094   6.499   8.929   7.964
  109DIO    H11 6095   6.440   8.781   8.163
  109DIO    H12 6096   6.482   8.533   8.131
  109DIO    H13 6097   6.630   8.628   8.149
  109DIO    H14 6098   6.350   8.657   7.896
  109DIO    H15 6099   6.274   8.636   8.053
  109DIO    H16 6100   6.287   8.895   7.891
  109DIO    H17 6101   6.148   8.791   7.916
  109DIO    H18 6102   6.157   8.842   8.164
  109DIO    H19 6103   6.287   8.958   8.131
  109DIO    H20 6104   6.127   8.984   8.062
  110DIO     F1 6105   5.540   7.146   6.439
  110DIO     C1 6106   5.462   7.077   6.353
  110DIO     C2 6107   5.318   7.080   6.369
  110DIO     C3 6108   5.229   7.004   6.278
  110DIO     C4 6109   5.295   6.928   6.169
  110DIO     C5 6110   5.439   6.928   6.154
  110DIO     F2 6111   5.495   6.861   6.051
  110DIO     C6 6112   5.523   7.002   6.245
  110DIO     F3 6113   5.657   7.000   6.231
  110DIO     C7 6114   5.083   7.004   6.294
  110DIO     C8 6115   5.006   6.878   6.297
  110DIO     C9 6116   4.861   6.878   6.312
  110DIO    C10 6117   4.789   7.003   6.315
  110DIO    C11 6118   4.861   7.129   6.320
  110DIO    C12 6119   5.005   7.129   6.308
  110DIO     F4 6120   5.070   7.247   6.307
  110DIO     O1 6121   4.656   6.997   6.354
  110DIO    C13 6122   4.562   7.083   6.300
  110DIO     O2 6123   4.561   7.155   6.196
  110DIO    C14 6124   4.433   7.077   6.369
  110DIO    C15 6125   4.367   6.947   6.398
  110DIO     F5 6126   4.429   6.831   6.369
  110DIO    C16 6127   4.236   6.939   6.460
  110DIO    C17 6128   4.160   7.060   6.490
  110DIO    C18 6129   4.229   7.188   6.479
  110DIO    C19 6130   4.360   7.196   6.418
  110DIO     F6 6131   4.423   7.316   6.423
  110DIO    C20 6132   4.019   7.052   6.545
  110DIO     O3 6133   3.950   6.933   6.508
  110DIO    C21 6134   3.906   6.933   6.373
  110DIO    C22 6135   3.817   7.054   6.345
  110DIO    C23 6136   3.898   7.178   6.383
  110DIO     O4 6137   3.942   7.170   6.518
  110DIO    C24 6138   3.684   7.051   6.424
  110DIO    C25 6139   3.594   6.931   6.398
  110DIO    C26 6140   3.555   6.913   6.252
  110DIO     H1 6141   5.276   7.138   6.450
  110DIO     H2 6142   5.234   6.879   6.094
  110DIO     H3 6143   5.057   6.783   6.293
  110DIO     H4 6144   4.806   6.785   6.323
  110DIO     H5 6145   4.807   7.222   6.328
  110DIO     H6 6146   4.198   6.841   6.487
  110DIO     H7 6147   4.186   7.278   6.520
  110DIO     H8 6148   4.029   7.048   6.654
  110DIO     H9 6149   3.993   6.933   6.306
  110DIO    H10 6150   3.853   6.840   6.354
  110DIO    H11 6151   3.794   7.059   6.238
  110DIO    H12 6152   3.837   7.268   6.374
  110DIO    H13 6153   3.984   7.191   6.317
  110DIO    H14 6154   3.704   7.056   6.532
  110DIO    H15 6155   3.628   7.142   6.400
  110DIO    H16 6156   3.641   6.839   6.435
  110DIO    H17 6157   3.502   6.943   6.457
  110DIO    H18 6158   3.511   7.004   6.211
  110DIO    H19 6159   3.642   6.886   6.191
  110DIO    H20 6160   3.481   6.833   6.242
  111DIO     F1 6161   5.531   2.349   2.348
  111DIO     C1 6162   5.454   2.268   2.422
  111DIO     C2 6163   5.309   2.284   2.419
  111DIO     C3 6164   5.221   2.199   2.501
  111DIO     C4 6165   5.286   2.094   2.583
  111DIO     C5 6166   5.430   2.080   2.585
  111DIO     F2 6167   5.486   1.981   2.658
  111DIO     C6 6168   5.514   2.166   2.505
  111DIO     F3 6169   5.648   2.152   2.508
  111DIO     C7 6170   5.074   2.215   2.499
  111DIO     C8 6171   4.997   2.226   2.625
  111DIO     C9 6172   4.852   2.241   2.624
  111DIO    C10 6173   4.780   2.235   2.498
  111DIO    C11 6174   4.852   2.232   2.373
  111DIO    C12 6175   4.996   2.220   2.374
  111DIO     F4 6176   5.061   2.211   2.256
  111DIO     O1 6177   4.648   2.274   2.503
  111DIO    C13 6178   4.553   2.214   2.420
  111DIO     O2 6179   4.552   2.106   2.355
  111DIO    C14 6180   4.424   2.284   2.422
  111DIO    C15 6181   4.358   2.321   2.549
  111DIO     F5 6182   4.420   2.300   2.667
  111DIO    C16 6183   4.227   2.384   2.553
  111DIO    C17 6184   4.151   2.406   2.431
  111DIO    C18 6185   4.220   2.386   2.304
  111DIO    C19 6186   4.352   2.325   2.300
  111DIO     F6 6187   4.414   2.323   2.180
  111DIO    C20 6188   4.010   2.461   2.434
  111DIO     O3 6189   3.941   2.433   2.556
  111DIO    C21 6190   3.897   2.298   2.564
  111DIO    C22 6191   3.808   2.262   2.446
  111DIO    C23 6192   3.889   2.292   2.320
  111DIO     O4 6193   3.933   2.427   2.319
  111DIO    C24 6194   3.675   2.341   2.444
  111DIO    C25 6195   3.585   2.322   2.566
  111DIO    C26 6196   3.546   2.178   2.593
  111DIO     H1 6197   5.267   2.361   2.355
  111DIO     H2 6198   5.226   2.022   2.637
  111DIO     H3 6199   5.049   2.228   2.720
  111DIO     H4 6200   4.797   2.257   2.715
  111DIO     H5 6201   4.798   2.234   2.279
  111DIO     H6 6202   4.189   2.417   2.649
  111DIO     H7 6203   4.177   2.422   2.211
  111DIO     H8 6204   4.020   2.570   2.432
  111DIO     H9 6205   3.984   2.231   2.569
  111DIO    H10 6206   3.844   2.285   2.659
  111DIO    H11 6207   3.786   2.154   2.448
  111DIO    H12 6208   3.828   2.276   2.230
  111DIO    H13 6209   3.975   2.224   2.311
  111DIO    H14 6210   3.695   2.448   2.432
  111DIO    H15 6211   3.619   2.310   2.354
  111DIO    H16 6212   3.632   2.365   2.655
  111DIO    H17 6213   3.493   2.380   2.549
  111DIO    H18 6214   3.502   2.131   2.504
  111DIO    H19 6215   3.633   2.119   2.624
  111DIO    H20 6216   3.473   2.173   2.674
  112DIO     F1 6217   7.702   1.580   1.446
  112DIO     C1 6218   7.624   1.487   1.505
  112DIO     C2 6219   7.480   1.504   1.505
  112DIO     C3 6220   7.391   1.405   1.570
  112DIO     C4 6221   7.457   1.289   1.634
  112DIO     C5 6222   7.601   1.274   1.633
  112DIO     F2 6223   7.656   1.164   1.688
  112DIO     C6 6224   7.685   1.372   1.569
  112DIO     F3 6225   7.818   1.358   1.569
  112DIO     C7 6226   7.245   1.421   1.572
  112DIO     C8 6227   7.168   1.411   1.698
  112DIO     C9 6228   7.023   1.426   1.699
  112DIO    C10 6229   6.950   1.442   1.575
  112DIO    C11 6230   7.023   1.461   1.450
  112DIO    C12 6231   7.167   1.448   1.449
  112DIO     F4 6232   7.232   1.460   1.332
  112DIO     O1 6233   6.818   1.480   1.585
  112DIO    C13 6234   6.724   1.435   1.493
  112DIO     O2 6235   6.723   1.340   1.411
  112DIO    C14 6236   6.595   1.503   1.508
  112DIO    C15 6237   6.528   1.518   1.639
  112DIO     F5 6238   6.591   1.477   1.751
  112DIO    C16 6239   6.397   1.579   1.654
  112DIO    C17 6240   6.322   1.622   1.537
  112DIO    C18 6241   6.390   1.624   1.409
  112DIO    C19 6242   6.522   1.565   1.394
  112DIO     F6 6243   6.585   1.583   1.276
  112DIO    C20 6244   6.181   1.676   1.551
  112DIO     O3 6245   6.111   1.627   1.666
  112DIO    C21 6246   6.068   1.492   1.650
  112DIO    C22 6247   5.979   1.477   1.527
  112DIO    C23 6248   6.059   1.528   1.408
  112DIO     O4 6249   6.104   1.662   1.431
  112DIO    C24 6250   5.846   1.555   1.539
  112DIO    C25 6251   5.755   1.516   1.656
  112DIO    C26 6252   5.717   1.369   1.658
  112DIO     H1 6253   7.437   1.591   1.455
  112DIO     H2 6254   7.396   1.208   1.675
  112DIO     H3 6255   7.219   1.396   1.792
  112DIO     H4 6256   6.968   1.426   1.792
  112DIO     H5 6257   6.968   1.478   1.358
  112DIO     H6 6258   6.359   1.595   1.755
  112DIO     H7 6259   6.348   1.675   1.323
  112DIO     H8 6260   6.191   1.784   1.567
  112DIO     H9 6261   6.154   1.425   1.643
  112DIO    H10 6262   6.015   1.463   1.742
  112DIO    H11 6263   5.956   1.371   1.511
  112DIO    H12 6264   5.998   1.529   1.317
  112DIO    H13 6265   6.146   1.463   1.388
  112DIO    H14 6266   5.866   1.663   1.546
  112DIO    H15 6267   5.789   1.541   1.446
  112DIO    H16 6268   5.803   1.543   1.751
  112DIO    H17 6269   5.663   1.576   1.650
  112DIO    H18 6270   5.673   1.339   1.562
  112DIO    H19 6271   5.803   1.305   1.678
  112DIO    H20 6272   5.643   1.351   1.737
  113DIO     F1 6273   2.360   9.573   2.341
  113DIO     C1 6274   2.282   9.666   2.400
  113DIO     C2 6275   2.138   9.658   2.385
  113DIO     C3 6276   2.050   9.759   2.447
  113DIO     C4 6277   2.115   9.866   2.526
  113DIO     C5 6278   2.259   9.871   2.540
  113DIO     F2 6279   2.315   9.968   2.616
  113DIO     C6 6280   2.343   9.772   2.477
  113DIO     F3 6281   2.477   9.778   2.490
  113DIO     C7 6282   1.903   9.754   2.432
  113DIO     C8 6283   1.826   9.873   2.388
  113DIO     C9 6284   1.681   9.868   2.374
  113DIO    C10 6285   1.609   9.748   2.412
  113DIO    C11 6286   1.681   9.627   2.447
  113DIO    C12 6287   1.825   9.632   2.459
  113DIO     F4 6288   1.890   9.520   2.498
  113DIO     O1 6289   1.477   9.742   2.373
  113DIO    C13 6290   1.382   9.677   2.452
  113DIO     O2 6291   1.381   9.643   2.573
  113DIO    C14 6292   1.253   9.661   2.384
  113DIO    C15 6293   1.187   9.774   2.316
  113DIO     F5 6294   1.249   9.893   2.305
  113DIO    C16 6295   1.056   9.763   2.254
  113DIO    C17 6296   0.980   9.638   2.264
  113DIO    C18 6297   1.049   9.521   2.316
  113DIO    C19 6298   1.180   9.533   2.377
  113DIO     F6 6299   1.243   9.417   2.410
  113DIO    C20 6300   0.839   9.628   2.210
  113DIO     O3 6301   0.770   9.753   2.206
  113DIO    C21 6302   0.726   9.796   2.334
  113DIO    C22 6303   0.637   9.690   2.400
  113DIO    C23 6304   0.718   9.561   2.403
  113DIO     O4 6305   0.762   9.525   2.273
  113DIO    C24 6306   0.504   9.668   2.324
  113DIO    C25 6307   0.414   9.790   2.310
  113DIO    C26 6308   0.375   9.854   2.443
  113DIO     H1 6309   2.096   9.577   2.327
  113DIO     H2 6310   2.054   9.937   2.582
  113DIO     H3 6311   1.878   9.964   2.362
  113DIO     H4 6312   1.626   9.952   2.334
  113DIO     H5 6313   1.627   9.537   2.470
  113DIO     H6 6314   1.018   9.847   2.197
  113DIO     H7 6315   1.006   9.422   2.306
  113DIO     H8 6316   0.849   9.597   2.105
  113DIO     H9 6317   0.813   9.817   2.398
  113DIO    H10 6318   0.673   9.890   2.322
  113DIO    H11 6319   0.615   9.720   2.503
  113DIO    H12 6320   0.657   9.478   2.442
  113DIO    H13 6321   0.804   9.570   2.471
  113DIO    H14 6322   0.524   9.629   2.224
  113DIO    H15 6323   0.448   9.589   2.376
  113DIO    H16 6324   0.461   9.865   2.246
  113DIO    H17 6325   0.322   9.759   2.258
  113DIO    H18 6326   0.331   9.780   2.511
  113DIO    H19 6327   0.462   9.899   2.492
  113DIO    H20 6328   0.302   9.933   2.426
  114DIO     F1 6329   4.050   5.056   1.742
  114DIO     C1 6330   3.973   5.072   1.851
  114DIO     C2 6331   3.829   5.078   1.835
  114DIO     C3 6332   3.740   5.097   1.952
  114DIO     C4 6333   3.805   5.107   2.084
  114DIO     C5 6334   3.950   5.100   2.097
  114DIO     F2 6335   4.005   5.105   2.220
  114DIO     C6 6336   4.033   5.082   1.981
  114DIO     F3 6337   4.167   5.077   1.994
  114DIO     C7 6338   3.593   5.105   1.938
  114DIO     C8 6339   3.516   5.215   2.000
  114DIO     C9 6340   3.372   5.223   1.987
  114DIO    C10 6341   3.299   5.116   1.920
  114DIO    C11 6342   3.371   5.010   1.852
  114DIO    C12 6343   3.516   5.004   1.863
  114DIO     F4 6344   3.580   4.902   1.803
  114DIO     O1 6345   3.167   5.142   1.891
  114DIO    C13 6346   3.072   5.039   1.893
  114DIO     O2 6347   3.071   4.925   1.946
  114DIO    C14 6348   2.943   5.080   1.837
  114DIO    C15 6349   2.877   5.206   1.878
  114DIO     F5 6350   2.939   5.292   1.961
  114DIO    C16 6351   2.746   5.245   1.828
  114DIO    C17 6352   2.670   5.157   1.741
  114DIO    C18 6353   2.739   5.041   1.686
  114DIO    C19 6354   2.871   5.002   1.734
  114DIO     F6 6355   2.933   4.902   1.668
  114DIO    C20 6356   2.530   5.191   1.698
  114DIO     O3 6357   2.460   5.275   1.790
  114DIO    C21 6358   2.416   5.206   1.906
  114DIO    C22 6359   2.327   5.088   1.869
  114DIO    C23 6360   2.408   5.000   1.773
  114DIO     O4 6361   2.452   5.076   1.661
  114DIO    C24 6362   2.194   5.130   1.802
  114DIO    C25 6363   2.104   5.221   1.886
  114DIO    C26 6364   2.065   5.162   2.021
  114DIO     H1 6365   3.786   5.069   1.736
  114DIO     H2 6366   3.745   5.111   2.174
  114DIO     H3 6367   3.568   5.295   2.052
  114DIO     H4 6368   3.316   5.308   2.025
  114DIO     H5 6369   3.317   4.934   1.798
  114DIO     H6 6370   2.708   5.343   1.855
  114DIO     H7 6371   2.696   4.984   1.604
  114DIO     H8 6372   2.539   5.250   1.606
  114DIO     H9 6373   2.503   5.172   1.964
  114DIO    H10 6374   2.363   5.277   1.970
  114DIO    H11 6375   2.305   5.029   1.959
  114DIO    H12 6376   2.347   4.918   1.735
  114DIO    H13 6377   2.494   4.955   1.824
  114DIO    H14 6378   2.214   5.181   1.707
  114DIO    H15 6379   2.138   5.040   1.777
  114DIO    H16 6380   2.151   5.319   1.901
  114DIO    H17 6381   2.012   5.240   1.829
  114DIO    H18 6382   2.021   5.062   2.010
  114DIO    H19 6383   2.152   5.154   2.088
  114DIO    H20 6384   1.992   5.226   2.070
  115DIO     F1 6385   9.944   7.923   3.709
  115DIO     C1 6386   9.866   7.924   3.819
  115DIO     C2 6387   9.722   7.932   3.805
  115DIO     C3 6388   9.633   7.936   3.923
  115DIO     C4 6389   9.699   7.927   4.056
  115DIO     C5 6390   9.843   7.919   4.067
  115DIO     F2 6391   9.899   7.908   4.190
  115DIO     C6 6392   9.927   7.917   3.950
  115DIO     F3 6393  10.061   7.910   3.962
  115DIO     C7 6394   9.487   7.945   3.910
  115DIO     C8 6395   9.410   8.046   3.986
  115DIO     C9 6396   9.265   8.056   3.974
  115DIO    C10 6397   9.193   7.959   3.894
  115DIO    C11 6398   9.265   7.863   3.812
  115DIO    C12 6399   9.409   7.855   3.823
  115DIO     F4 6400   9.474   7.762   3.750
  115DIO     O1 6401   9.060   7.988   3.868
  115DIO    C13 6402   8.966   7.886   3.857
  115DIO     O2 6403   8.965   7.766   3.894
  115DIO    C14 6404   8.837   7.934   3.807
  115DIO    C15 6405   8.771   8.054   3.864
  115DIO     F5 6406   8.833   8.127   3.958
  115DIO    C16 6407   8.640   8.099   3.820
  115DIO    C17 6408   8.564   8.023   3.722
  115DIO    C18 6409   8.633   7.915   3.652
  115DIO    C19 6410   8.764   7.870   3.695
  115DIO     F6 6411   8.827   7.780   3.616
  115DIO    C20 6412   8.423   8.062   3.683
  115DIO     O3 6413   8.354   8.134   3.786
  115DIO    C21 6414   8.310   8.049   3.892
  115DIO    C22 6415   8.221   7.937   3.839
  115DIO    C23 6416   8.302   7.863   3.733
  115DIO     O4 6417   8.346   7.953   3.631
  115DIO    C24 6418   8.088   7.988   3.779
  115DIO    C25 6419   7.998   8.067   3.874
  115DIO    C26 6420   7.959   7.991   4.000
  115DIO     H1 6421   9.680   7.936   3.705
  115DIO     H2 6422   9.638   7.920   4.145
  115DIO     H3 6423   9.461   8.118   4.048
  115DIO     H4 6424   9.210   8.135   4.023
  115DIO     H5 6425   9.211   7.794   3.749
  115DIO     H6 6426   8.602   8.192   3.860
  115DIO     H7 6427   8.590   7.869   3.563
  115DIO     H8 6428   8.433   8.133   3.600
  115DIO     H9 6429   8.397   8.008   3.945
  115DIO    H10 6430   8.257   8.112   3.965
  115DIO    H11 6431   8.198   7.867   3.921
  115DIO    H12 6432   8.241   7.786   3.684
  115DIO    H13 6433   8.388   7.812   3.777
  115DIO    H14 6434   8.108   8.051   3.692
  115DIO    H15 6435   8.032   7.902   3.742
  115DIO    H16 6436   8.045   8.162   3.902
  115DIO    H17 6437   7.906   8.093   3.820
  115DIO    H18 6438   7.915   7.893   3.975
  115DIO    H19 6439   8.046   7.974   4.065
  115DIO    H20 6440   7.885   8.048   4.057
  116DIO     F1 6441   6.092   5.527   9.822
  116DIO     C1 6442   6.014   5.419   9.799
  116DIO     C2 6443   5.870   5.432   9.810
  116DIO     C3 6444   5.781   5.315   9.787
  116DIO     C4 6445   5.847   5.188   9.750
  116DIO     C5 6446   5.991   5.178   9.740
  116DIO     F2 6447   6.046   5.061   9.702
  116DIO     C6 6448   6.075   5.293   9.763
  116DIO     F3 6449   6.208   5.282   9.754
  116DIO     C7 6450   5.635   5.326   9.800
  116DIO     C8 6451   5.558   5.230   9.882
  116DIO     C9 6452   5.413   5.239   9.893
  116DIO    C10 6453   5.340   5.338   9.816
  116DIO    C11 6454   5.413   5.439   9.741
  116DIO    C12 6455   5.557   5.431   9.731
  116DIO     F4 6456   5.622   5.522   9.656
  116DIO     O1 6457   5.208   5.358   9.850
  116DIO    C13 6458   5.114   5.390   9.753
  116DIO     O2 6459   5.113   5.381   9.628
  116DIO    C14 6460   4.985   5.429   9.812
  116DIO    C15 6461   4.918   5.347   9.916
  116DIO     F5 6462   4.981   5.239   9.967
  116DIO    C16 6463   4.787   5.380   9.969
  116DIO    C17 6464   4.712   5.493   9.916
  116DIO    C18 6465   4.780   5.585   9.826
  116DIO    C19 6466   4.912   5.552   9.774
  116DIO     F6 6467   4.975   5.649   9.703
  116DIO    C20 6468   4.571   5.521   9.963
  116DIO     O3 6469   4.501   5.406  10.011
  116DIO    C21 6470   4.458   5.321   9.905
  116DIO    C22 6471   4.369   5.396   9.807
  116DIO    C23 6472   4.449   5.517   9.758
  116DIO     O4 6473   4.494   5.596   9.868
  116DIO    C24 6474   4.236   5.444   9.870
  116DIO    C25 6475   4.145   5.334   9.926
  116DIO    C26 6476   4.107   5.228   9.824
  116DIO     H1 6477   5.827   5.528   9.836
  116DIO     H2 6478   5.786   5.102   9.723
  116DIO     H3 6479   5.609   5.153   9.939
  116DIO     H4 6480   5.358   5.174   9.960
  116DIO     H5 6481   5.358   5.516   9.688
  116DIO     H6 6482   4.749   5.321  10.052
  116DIO     H7 6483   4.738   5.681   9.801
  116DIO     H8 6484   4.581   5.587  10.050
  116DIO     H9 6485   4.544   5.278   9.854
  116DIO    H10 6486   4.405   5.236   9.950
  116DIO    H11 6487   4.346   5.332   9.721
  116DIO    H12 6488   4.388   5.581   9.694
  116DIO    H13 6489   4.536   5.484   9.699
  116DIO    H14 6490   4.256   5.516   9.951
  116DIO    H15 6491   4.179   5.499   9.794
  116DIO    H16 6492   4.193   5.286  10.013
  116DIO    H17 6493   4.053   5.381   9.964
  116DIO    H18 6494   4.063   5.273   9.735
  116DIO    H19 6495   4.193   5.168   9.794
  116DIO    H20 6496   4.033   5.160   9.867
  117DIO     F1 6497   9.558   4.634   5.217
  117DIO     C1 6498   9.480   4.532   5.258
  117DIO     C2 6499   9.336   4.549   5.260
  117DIO     C3 6500   9.247   4.440   5.307
  117DIO     C4 6501   9.313   4.313   5.348
  117DIO     C5 6502   9.457   4.299   5.345
  117DIO     F2 6503   9.512   4.181   5.379
  117DIO     C6 6504   9.541   4.408   5.299
  117DIO     F3 6505   9.674   4.393   5.297
  117DIO     C7 6506   9.101   4.455   5.311
  117DIO     C8 6507   9.024   4.422   5.433
  117DIO     C9 6508   8.879   4.436   5.437
  117DIO    C10 6509   8.806   4.475   5.318
  117DIO    C11 6510   8.879   4.516   5.199
  117DIO    C12 6511   9.023   4.504   5.195
  117DIO     F4 6512   9.088   4.537   5.082
  117DIO     O1 6513   8.674   4.510   5.335
  117DIO    C13 6514   8.580   4.483   5.237
  117DIO     O2 6515   8.579   4.404   5.138
  117DIO    C14 6516   8.451   4.547   5.263
  117DIO    C15 6517   8.384   4.538   5.395
  117DIO     F5 6518   8.447   4.477   5.498
  117DIO    C16 6519   8.253   4.595   5.421
  117DIO    C17 6520   8.178   4.659   5.314
  117DIO    C18 6521   8.246   4.684   5.188
  117DIO    C19 6522   8.378   4.628   5.163
  117DIO     F6 6523   8.441   4.668   5.049
  117DIO    C20 6524   8.037   4.709   5.336
  117DIO     O3 6525   7.967   4.640   5.441
  117DIO    C21 6526   7.924   4.510   5.401
  117DIO    C22 6527   7.835   4.518   5.278
  117DIO    C23 6528   7.915   4.590   5.170
  117DIO     O4 6529   7.960   4.717   5.216
  117DIO    C24 6530   7.702   4.593   5.303
  117DIO    C25 6531   7.611   4.533   5.411
  117DIO    C26 6532   7.573   4.388   5.386
  117DIO     H1 6533   9.293   4.643   5.228
  117DIO     H2 6534   9.252   4.227   5.374
  117DIO     H3 6535   9.075   4.391   5.523
  117DIO     H4 6536   8.824   4.420   5.529
  117DIO     H5 6537   8.824   4.550   5.112
  117DIO     H6 6538   8.215   4.593   5.522
  117DIO     H7 6539   8.204   4.750   5.113
  117DIO     H8 6540   8.047   4.812   5.372
  117DIO     H9 6541   8.010   4.446   5.383
  117DIO    H10 6542   7.871   4.466   5.486
  117DIO    H11 6543   7.812   4.417   5.243
  117DIO    H12 6544   7.854   4.607   5.080
  117DIO    H13 6545   8.002   4.530   5.139
  117DIO    H14 6546   7.722   4.697   5.329
  117DIO    H15 6547   7.645   4.595   5.209
  117DIO    H16 6548   7.659   4.542   5.510
  117DIO    H17 6549   7.519   4.593   5.416
  117DIO    H18 6550   7.529   4.375   5.287
  117DIO    H19 6551   7.659   4.322   5.395
  117DIO    H20 6552   7.499   4.356   5.461
  118DIO     F1 6553   9.955   0.788   4.874
  118DIO     C1 6554   9.877   0.800   4.983
  118DIO     C2 6555   9.733   0.807   4.968
  118DIO     C3 6556   9.644   0.821   5.085
  118DIO     C4 6557   9.710   0.826   5.218
  118DIO     C5 6558   9.854   0.819   5.231
  118DIO     F2 6559   9.910   0.820   5.354
  118DIO     C6 6560   9.938   0.805   5.114
  118DIO     F3 6561  10.072   0.800   5.127
  118DIO     C7 6562   9.498   0.830   5.072
  118DIO     C8 6563   9.421   0.938   5.137
  118DIO     C9 6564   9.276   0.946   5.124
  118DIO    C10 6565   9.204   0.842   5.054
  118DIO    C11 6566   9.276   0.738   4.982
  118DIO    C12 6567   9.420   0.732   4.993
  118DIO     F4 6568   9.485   0.632   4.930
  118DIO     O1 6569   9.071   0.868   5.025
  118DIO    C13 6570   8.977   0.766   5.025
  118DIO     O2 6571   8.976   0.650   5.073
  118DIO    C14 6572   8.848   0.809   4.970
  118DIO    C15 6573   8.781   0.933   5.015
  118DIO     F5 6574   8.844   1.016   5.101
  118DIO    C16 6575   8.651   0.974   4.967
  118DIO    C17 6576   8.575   0.888   4.876
  118DIO    C18 6577   8.644   0.774   4.817
  118DIO    C19 6578   8.775   0.734   4.864
  118DIO     F6 6579   8.838   0.637   4.795
  118DIO    C20 6580   8.434   0.924   4.834
  118DIO     O3 6581   8.364   1.005   4.929
  118DIO    C21 6582   8.321   0.932   5.043
  118DIO    C22 6583   8.232   0.815   5.002
  118DIO    C23 6584   8.313   0.731   4.903
  118DIO     O4 6585   8.357   0.810   4.793
  118DIO    C24 6586   8.099   0.860   4.937
  118DIO    C25 6587   8.008   0.947   5.024
  118DIO    C26 6588   7.970   0.884   5.157
  118DIO     H1 6589   9.691   0.801   4.868
  118DIO     H2 6590   9.649   0.827   5.308
  118DIO     H3 6591   9.472   1.016   5.192
  118DIO     H4 6592   9.221   1.029   5.165
  118DIO     H5 6593   9.222   0.664   4.926
  118DIO     H6 6594   8.613   1.071   4.997
  118DIO     H7 6595   8.601   0.720   4.734
  118DIO     H8 6596   8.444   0.986   4.745
  118DIO     H9 6597   8.407   0.896   5.100
  118DIO    H10 6598   8.268   1.001   5.110
  118DIO    H11 6599   8.209   0.753   5.090
  118DIO    H12 6600   8.252   0.650   4.862
  118DIO    H13 6601   8.399   0.684   4.952
  118DIO    H14 6602   8.119   0.914   4.844
  118DIO    H15 6603   8.043   0.770   4.909
  118DIO    H16 6604   8.056   1.044   5.042
  118DIO    H17 6605   7.917   0.968   4.967
  118DIO    H18 6606   7.926   0.785   5.142
  118DIO    H19 6607   8.057   0.874   5.223
  118DIO    H20 6608   7.896   0.946   5.208
  119DIO     F1 6609   4.283   7.224   9.372
  119DIO     C1 6610   4.205   7.261   9.476
  119DIO     C2 6611   4.061   7.264   9.459
  119DIO     C3 6612   3.972   7.306   9.570
  119DIO     C4 6613   4.038   7.342   9.698
  119DIO     C5 6614   4.182   7.338   9.712
  119DIO     F2 6615   4.238   7.367   9.831
  119DIO     C6 6616   4.266   7.297   9.602
  119DIO     F3 6617   4.400   7.295   9.616
  119DIO     C7 6618   3.826   7.311   9.555
  119DIO     C8 6619   3.749   7.431   9.593
  119DIO     C9 6620   3.604   7.436   9.579
  119DIO    C10 6621   3.532   7.318   9.535
  119DIO    C11 6622   3.604   7.201   9.489
  119DIO    C12 6623   3.748   7.197   9.501
  119DIO     F4 6624   3.813   7.085   9.463
  119DIO     O1 6625   3.399   7.337   9.501
  119DIO    C13 6626   3.305   7.238   9.524
  119DIO     O2 6627   3.304   7.136   9.598
  119DIO    C14 6628   3.176   7.267   9.461
  119DIO    C15 6629   3.110   7.398   9.475
  119DIO     F5 6630   3.172   7.499   9.540
  119DIO    C16 6631   2.979   7.427   9.419
  119DIO    C17 6632   2.903   7.322   9.351
  119DIO    C18 6633   2.972   7.197   9.321
  119DIO    C19 6634   3.103   7.170   9.376
  119DIO     F6 6635   3.166   7.058   9.331
  119DIO    C20 6636   2.762   7.347   9.302
  119DIO     O3 6637   2.693   7.448   9.376
  119DIO    C21 6638   2.649   7.403   9.503
  119DIO    C22 6639   2.560   7.280   9.491
  119DIO    C23 6640   2.641   7.175   9.414
  119DIO     O4 6641   2.685   7.227   9.289
  119DIO    C24 6642   2.427   7.308   9.417
  119DIO    C25 6643   2.337   7.414   9.481
  119DIO    C26 6644   2.298   7.383   9.625
  119DIO     H1 6645   4.019   7.235   9.364
  119DIO     H2 6646   3.977   7.364   9.785
  119DIO     H3 6647   3.800   7.520   9.628
  119DIO     H4 6648   3.549   7.527   9.599
  119DIO     H5 6649   3.550   7.115   9.452
  119DIO     H6 6650   2.941   7.528   9.426
  119DIO     H7 6651   2.929   7.125   9.252
  119DIO     H8 6652   2.772   7.387   9.200
  119DIO     H9 6653   2.736   7.382   9.567
  119DIO    H10 6654   2.596   7.486   9.552
  119DIO    H11 6655   2.537   7.241   9.590
  119DIO    H12 6656   2.580   7.087   9.394
  119DIO    H13 6657   2.727   7.142   9.473
  119DIO    H14 6658   2.447   7.339   9.313
  119DIO    H15 6659   2.371   7.215   9.410
  119DIO    H16 6660   2.384   7.513   9.476
  119DIO    H17 6661   2.245   7.421   9.421
  119DIO    H18 6662   2.254   7.283   9.633
  119DIO    H19 6663   2.385   7.389   9.691
  119DIO    H20 6664   2.224   7.456   9.660
  120DIO     F1 6665   9.533   2.838   0.295
  120DIO     C1 6666   9.456   2.776   0.386
  120DIO     C2 6667   9.312   2.791   0.379
  120DIO     C3 6668   9.223   2.726   0.478
  120DIO     C4 6669   9.288   2.643   0.582
  120DIO     C5 6670   9.433   2.629   0.587
  120DIO     F2 6671   9.488   2.550   0.680
  120DIO     C6 6672   9.516   2.695   0.489
  120DIO     F3 6673   9.650   2.682   0.495
  120DIO     C7 6674   9.077   2.741   0.473
  120DIO     C8 6675   8.999   2.781   0.593
  120DIO     C9 6676   8.855   2.795   0.588
  120DIO    C10 6677   8.782   2.761   0.467
  120DIO    C11 6678   8.855   2.729   0.345
  120DIO    C12 6679   8.999   2.718   0.350
  120DIO     F4 6680   9.064   2.683   0.237
  120DIO     O1 6681   8.650   2.800   0.463
  120DIO    C13 6682   8.555   2.723   0.395
  120DIO     O2 6683   8.555   2.603   0.357
  120DIO    C14 6684   8.426   2.791   0.382
  120DIO    C15 6685   8.360   2.856   0.497
  120DIO     F5 6686   8.423   2.863   0.616
  120DIO    C16 6687   8.229   2.919   0.487
  120DIO    C17 6688   8.153   2.912   0.362
  120DIO    C18 6689   8.222   2.864   0.243
  120DIO    C19 6690   8.354   2.803   0.253
  120DIO     F6 6691   8.416   2.774   0.137
  120DIO    C20 6692   8.013   2.967   0.354
  120DIO     O3 6693   7.943   2.967   0.479
  120DIO    C21 6694   7.899   2.837   0.517
  120DIO    C22 6695   7.810   2.775   0.410
  120DIO    C23 6696   7.891   2.775   0.280
  120DIO     O4 6697   7.935   2.907   0.249
  120DIO    C24 6698   7.678   2.851   0.390
  120DIO    C25 6699   7.587   2.861   0.513
  120DIO    C26 6700   7.549   2.727   0.572
  120DIO     H1 6701   9.269   2.851   0.299
  120DIO     H2 6702   9.228   2.585   0.651
  120DIO     H3 6703   9.051   2.804   0.685
  120DIO     H4 6704   8.800   2.832   0.674
  120DIO     H5 6705   8.800   2.710   0.254
  120DIO     H6 6706   8.191   2.972   0.573
  120DIO     H7 6707   8.179   2.877   0.145
  120DIO     H8 6708   8.022   3.072   0.326
  120DIO     H9 6709   7.986   2.773   0.537
  120DIO    H10 6710   7.847   2.846   0.613
  120DIO    H11 6711   7.788   2.671   0.437
  120DIO    H12 6712   7.830   2.740   0.197
  120DIO    H13 6713   7.977   2.708   0.288
  120DIO    H14 6714   7.698   2.953   0.354
  120DIO    H15 6715   7.621   2.801   0.310
  120DIO    H16 6716   7.634   2.923   0.590
  120DIO    H17 6717   7.495   2.914   0.484
  120DIO    H18 6718   7.505   2.661   0.497
  120DIO    H19 6719   7.635   2.676   0.616
  120DIO    H20 6720   7.475   2.741   0.652
  121DIO     F1 6721   9.478   2.671   3.871
  121DIO     C1 6722   9.400   2.754   3.943
  121DIO     C2 6723   9.256   2.749   3.927
  121DIO     C3 6724   9.167   2.840   4.002
  121DIO     C4 6725   9.233   2.934   4.096
  121DIO     C5 6726   9.377   2.938   4.110
  121DIO     F2 6727   9.432   3.022   4.199
  121DIO     C6 6728   9.461   2.848   4.034
  121DIO     F3 6729   9.594   2.853   4.048
  121DIO     C7 6730   9.021   2.837   3.987
  121DIO     C8 6731   8.944   2.960   3.961
  121DIO     C9 6732   8.799   2.957   3.946
  121DIO    C10 6733   8.726   2.834   3.966
  121DIO    C11 6734   8.799   2.709   3.984
  121DIO    C12 6735   8.943   2.712   3.997
  121DIO     F4 6736   9.008   2.596   4.019
  121DIO     O1 6737   8.594   2.833   3.927
  121DIO    C13 6738   8.500   2.758   3.996
  121DIO     O2 6739   8.499   2.706   4.111
  121DIO    C14 6740   8.370   2.752   3.927
  121DIO    C15 6741   8.304   2.873   3.875
  121DIO     F5 6742   8.367   2.993   3.881
  121DIO    C16 6743   8.173   2.870   3.812
  121DIO    C17 6744   8.098   2.746   3.804
  121DIO    C18 6745   8.166   2.622   3.839
  121DIO    C19 6746   8.298   2.625   3.901
  121DIO     F6 6747   8.360   2.507   3.917
  121DIO    C20 6748   7.957   2.743   3.749
  121DIO     O3 6749   7.887   2.867   3.763
  121DIO    C21 6750   7.843   2.892   3.896
  121DIO    C22 6751   7.755   2.778   3.946
  121DIO    C23 6752   7.835   2.649   3.931
  121DIO     O4 6753   7.880   2.632   3.797
  121DIO    C24 6754   7.622   2.766   3.868
  121DIO    C25 6755   7.531   2.890   3.872
  121DIO    C26 6756   7.493   2.934   4.012
  121DIO     H1 6757   9.213   2.677   3.858
  121DIO     H2 6758   9.172   2.997   4.161
  121DIO     H3 6759   8.995   3.055   3.947
  121DIO     H4 6760   8.744   3.046   3.918
  121DIO     H5 6761   8.744   2.616   3.994
  121DIO     H6 6762   8.135   2.962   3.768
  121DIO     H7 6763   8.123   2.526   3.815
  121DIO     H8 6764   7.967   2.727   3.641
  121DIO     H9 6765   7.930   2.904   3.962
  121DIO    H10 6766   7.791   2.987   3.897
  121DIO    H11 6767   7.732   2.794   4.052
  121DIO    H12 6768   7.774   2.562   3.957
  121DIO    H13 6769   7.921   2.649   3.999
  121DIO    H14 6770   7.642   2.742   3.763
  121DIO    H15 6771   7.565   2.682   3.909
  121DIO    H16 6772   7.578   2.973   3.818
  121DIO    H17 6773   7.439   2.867   3.816
  121DIO    H18 6774   7.449   2.852   4.069
  121DIO    H19 6775   7.579   2.972   4.067
  121DIO    H20 6776   7.419   3.015   4.007
  122DIO     F1 6777   6.355   7.920   1.679
  122DIO     C1 6778   6.277   7.941   1.571
  122DIO     C2 6779   6.133   7.930   1.584
  122DIO     C3 6780   6.044   7.951   1.467
  122DIO     C4 6781   6.110   7.985   1.339
  122DIO     C5 6782   6.254   7.996   1.329
  122DIO     F2 6783   6.309   8.031   1.211
  122DIO     C6 6784   6.338   7.975   1.444
  122DIO     F3 6785   6.471   7.984   1.433
  122DIO     C7 6786   5.898   7.938   1.477
  122DIO     C8 6787   5.821   7.855   1.383
  122DIO     C9 6788   5.676   7.843   1.393
  122DIO    C10 6789   5.603   7.922   1.491
  122DIO    C11 6790   5.676   8.000   1.590
  122DIO    C12 6791   5.820   8.009   1.581
  122DIO     F4 6792   5.885   8.086   1.671
  122DIO     O1 6793   5.471   7.888   1.510
  122DIO    C13 6794   5.377   7.986   1.541
  122DIO     O2 6795   5.376   8.111   1.529
  122DIO    C14 6796   5.247   7.929   1.581
  122DIO    C15 6797   5.181   7.823   1.501
  122DIO     F5 6798   5.244   7.770   1.394
  122DIO    C16 6799   5.050   7.770   1.535
  122DIO    C17 6800   4.975   7.825   1.647
  122DIO    C18 6801   5.043   7.917   1.737
  122DIO    C19 6802   5.175   7.969   1.704
  122DIO     F6 6803   5.237   8.042   1.799
  122DIO    C20 6804   4.834   7.779   1.676
  122DIO     O3 6805   4.764   7.729   1.562
  122DIO    C21 6806   4.720   7.833   1.474
  122DIO    C22 6807   4.632   7.932   1.548
  122DIO    C23 6808   4.712   7.983   1.668
  122DIO     O4 6809   4.757   7.875   1.749
  122DIO    C24 6810   4.499   7.870   1.597
  122DIO    C25 6811   4.408   7.812   1.488
  122DIO    C26 6812   4.370   7.912   1.380
  122DIO     H1 6813   6.090   7.906   1.680
  122DIO     H2 6814   6.049   8.011   1.252
  122DIO     H3 6815   5.872   7.796   1.308
  122DIO     H4 6816   5.621   7.775   1.329
  122DIO     H5 6817   5.621   8.054   1.666
  122DIO     H6 6818   5.012   7.686   1.477
  122DIO     H7 6819   5.000   7.944   1.833
  122DIO     H8 6820   4.844   7.693   1.744
  122DIO     H9 6821   4.807   7.884   1.431
  122DIO    H10 6822   4.668   7.786   1.391
  122DIO    H11 6823   4.609   8.017   1.483
  122DIO    H12 6824   4.651   8.049   1.730
  122DIO    H13 6825   4.798   8.042   1.634
  122DIO    H14 6826   4.519   7.791   1.671
  122DIO    H15 6827   4.442   7.948   1.651
  122DIO    H16 6828   4.455   7.725   1.442
  122DIO    H17 6829   4.316   7.775   1.536
  122DIO    H18 6830   4.326   8.002   1.424
  122DIO    H19 6831   4.456   7.941   1.320
  122DIO    H20 6832   4.296   7.868   1.313
  123DIO     F1 6833   7.277   4.279   5.133
  123DIO     C1 6834   7.200   4.328   5.035
  123DIO     C2 6835   7.055   4.314   5.044
  123DIO     C3 6836   6.967   4.365   4.937
  123DIO     C4 6837   7.032   4.433   4.823
  123DIO     C5 6838   7.176   4.446   4.816
  123DIO     F2 6839   7.232   4.512   4.712
  123DIO     C6 6840   7.260   4.394   4.922
  123DIO     F3 6841   7.394   4.406   4.914
  123DIO     C7 6842   6.820   4.351   4.944
  123DIO     C8 6843   6.743   4.295   4.830
  123DIO     C9 6844   6.598   4.282   4.837
  123DIO    C10 6845   6.526   4.331   4.952
  123DIO    C11 6846   6.598   4.379   5.069
  123DIO    C12 6847   6.742   4.391   5.063
  123DIO     F4 6848   6.807   4.440   5.170
  123DIO     O1 6849   6.394   4.294   4.962
  123DIO    C13 6850   6.299   4.379   5.018
  123DIO     O2 6851   6.298   4.503   5.040
  123DIO    C14 6852   6.170   4.313   5.041
  123DIO    C15 6853   6.104   4.233   4.936
  123DIO     F5 6854   6.166   4.211   4.818
  123DIO    C16 6855   5.973   4.173   4.954
  123DIO    C17 6856   5.897   4.196   5.077
  123DIO    C18 6857   5.966   4.260   5.188
  123DIO    C19 6858   6.098   4.319   5.170
  123DIO     F6 6859   6.160   4.364   5.281
  123DIO    C20 6860   5.756   4.143   5.093
  123DIO     O3 6861   5.687   4.126   4.969
  123DIO    C21 6862   5.643   4.250   4.913
  123DIO    C22 6863   5.554   4.326   5.011
  123DIO    C23 6864   5.635   4.343   5.139
  123DIO     O4 6865   5.679   4.216   5.188
  123DIO    C24 6866   5.421   4.253   5.041
  123DIO    C25 6867   5.331   4.226   4.921
  123DIO    C26 6868   5.292   4.351   4.843
  123DIO     H1 6869   7.013   4.265   5.131
  123DIO     H2 6870   6.972   4.481   4.747
  123DIO     H3 6871   6.795   4.259   4.742
  123DIO     H4 6872   6.543   4.233   4.757
  123DIO     H5 6873   6.544   4.411   5.156
  123DIO     H6 6874   5.935   4.108   4.876
  123DIO     H7 6875   5.923   4.260   5.287
  123DIO     H8 6876   5.766   4.042   5.134
  123DIO     H9 6877   5.730   4.310   4.885
  123DIO    H10 6878   5.590   4.227   4.820
  123DIO    H11 6879   5.532   4.425   4.970
  123DIO    H12 6880   5.574   4.389   5.217
  123DIO    H13 6881   5.721   4.409   5.123
  123DIO    H14 6882   5.441   4.157   5.090
  123DIO    H15 6883   5.365   4.313   5.114
  123DIO    H16 6884   5.378   4.154   4.853
  123DIO    H17 6885   5.239   4.178   4.957
  123DIO    H18 6886   5.248   4.427   4.910
  123DIO    H19 6887   5.379   4.395   4.793
  123DIO    H20 6888   5.219   4.327   4.766
  124DIO     F1 6889   7.010   3.549   8.095
  124DIO     C1 6890   6.932   3.600   7.998
  124DIO     C2 6891   6.788   3.585   8.006
  124DIO     C3 6892   6.699   3.638   7.900
  124DIO     C4 6893   6.765   3.708   7.787
  124DIO     C5 6894   6.909   3.721   7.781
  124DIO     F2 6895   6.964   3.789   7.678
  124DIO     C6 6896   6.993   3.668   7.885
  124DIO     F3 6897   7.126   3.680   7.878
  124DIO     C7 6898   6.553   3.624   7.907
  124DIO     C8 6899   6.476   3.570   7.793
  124DIO     C9 6900   6.331   3.556   7.799
  124DIO    C10 6901   6.258   3.604   7.915
  124DIO    C11 6902   6.331   3.650   8.032
  124DIO    C12 6903   6.475   3.662   8.027
  124DIO     F4 6904   6.540   3.710   8.135
  124DIO     O1 6905   6.126   3.566   7.924
  124DIO    C13 6906   6.032   3.651   7.982
  124DIO     O2 6907   6.031   3.775   8.006
  124DIO    C14 6908   5.903   3.585   8.004
  124DIO    C15 6909   5.836   3.506   7.897
  124DIO     F5 6910   5.899   3.486   7.779
  124DIO    C16 6911   5.705   3.446   7.914
  124DIO    C17 6912   5.630   3.467   8.037
  124DIO    C18 6913   5.698   3.529   8.150
  124DIO    C19 6914   5.830   3.588   8.133
  124DIO     F6 6915   5.893   3.631   8.244
  124DIO    C20 6916   5.489   3.414   8.052
  124DIO     O3 6917   5.419   3.399   7.928
  124DIO    C21 6918   5.376   3.523   7.874
  124DIO    C22 6919   5.287   3.598   7.973
  124DIO    C23 6920   5.367   3.613   8.102
  124DIO     O4 6921   5.412   3.486   8.149
  124DIO    C24 6922   5.154   3.524   8.003
  124DIO    C25 6923   5.063   3.500   7.882
  124DIO    C26 6924   5.025   3.626   7.807
  124DIO     H1 6925   6.745   3.535   8.092
  124DIO     H2 6926   6.704   3.757   7.712
  124DIO     H3 6927   6.527   3.536   7.704
  124DIO     H4 6928   6.276   3.510   7.719
  124DIO     H5 6929   6.276   3.681   8.120
  124DIO     H6 6930   5.667   3.382   7.835
  124DIO     H7 6931   5.656   3.528   8.249
  124DIO     H8 6932   5.499   3.312   8.092
  124DIO     H9 6933   5.462   3.584   7.847
  124DIO    H10 6934   5.323   3.503   7.781
  124DIO    H11 6935   5.264   3.697   7.934
  124DIO    H12 6936   5.306   3.658   8.181
  124DIO    H13 6937   5.454   3.679   8.087
  124DIO    H14 6938   5.174   3.427   8.050
  124DIO    H15 6939   5.097   3.583   8.076
  124DIO    H16 6940   5.111   3.429   7.812
  124DIO    H17 6941   4.971   3.451   7.917
  124DIO    H18 6942   4.981   3.700   7.874
  124DIO    H19 6943   5.111   3.671   7.757
  124DIO    H20 6944   4.951   3.603   7.729
  125DIO     F1 6945   2.933   4.592   7.316
  125DIO     C1 6946   2.855   4.649   7.222
  125DIO     C2 6947   2.711   4.634   7.230
  125DIO     C3 6948   2.622   4.694   7.128
  125DIO     C4 6949   2.688   4.771   7.019
  125DIO     C5 6950   2.832   4.784   7.014
  125DIO     F2 6951   2.887   4.858   6.916
  125DIO     C6 6952   2.916   4.724   7.115
  125DIO     F3 6953   3.049   4.737   7.108
  125DIO     C7 6954   2.476   4.679   7.133
  125DIO     C8 6955   2.399   4.633   7.016
  125DIO     C9 6956   2.254   4.619   7.021
  125DIO    C10 6957   2.181   4.659   7.140
  125DIO    C11 6958   2.254   4.698   7.260
  125DIO    C12 6959   2.398   4.709   7.255
  125DIO     F4 6960   2.463   4.750   7.366
  125DIO     O1 6961   2.049   4.621   7.147
  125DIO    C13 6962   1.955   4.701   7.210
  125DIO     O2 6963   1.954   4.823   7.242
  125DIO    C14 6964   1.825   4.634   7.227
  125DIO    C15 6965   1.759   4.562   7.116
  125DIO     F5 6966   1.822   4.550   6.997
  125DIO    C16 6967   1.628   4.501   7.129
  125DIO    C17 6968   1.553   4.514   7.253
  125DIO    C18 6969   1.621   4.569   7.369
  125DIO    C19 6970   1.753   4.629   7.356
  125DIO     F6 6971   1.815   4.665   7.470
  125DIO    C20 6972   1.412   4.460   7.265
  125DIO     O3 6973   1.342   4.453   7.140
  125DIO    C21 6974   1.298   4.581   7.094
  125DIO    C22 6975   1.210   4.649   7.198
  125DIO    C23 6976   1.290   4.655   7.327
  125DIO     O4 6977   1.335   4.525   7.366
  125DIO    C24 6978   1.077   4.574   7.222
  125DIO    C25 6979   0.986   4.557   7.100
  125DIO    C26 6980   0.948   4.688   7.033
  125DIO     H1 6981   2.668   4.579   7.313
  125DIO     H2 6982   2.627   4.825   6.947
  125DIO     H3 6983   2.450   4.604   6.925
  125DIO     H4 6984   2.199   4.577   6.938
  125DIO     H5 6985   2.199   4.722   7.350
  125DIO     H6 6986   1.590   4.443   7.046
  125DIO     H7 6987   1.578   4.561   7.468
  125DIO     H8 6988   1.422   4.356   7.298
  125DIO     H9 6989   1.385   4.644   7.071
  125DIO    H10 6990   1.246   4.566   6.999
  125DIO    H11 6991   1.187   4.751   7.165
  125DIO    H12 6992   1.229   4.695   7.409
  125DIO    H13 6993   1.376   4.722   7.316
  125DIO    H14 6994   1.097   4.474   7.263
  125DIO    H15 6995   1.020   4.628   7.299
  125DIO    H16 6996   1.033   4.491   7.026
  125DIO    H17 6997   0.894   4.506   7.132
  125DIO    H18 6998   0.904   4.757   7.105
  125DIO    H19 6999   1.034   4.736   6.987
  125DIO    H20 7000   0.874   4.669   6.954
  126DIO     F1 7001   4.046   3.978   6.243
  126DIO     C1 7002   3.968   4.088   6.240
  126DIO     C2 7003   3.824   4.073   6.232
  126DIO     C3 7004   3.736   4.192   6.226
  126DIO     C4 7005   3.801   4.325   6.231
  126DIO     C5 7006   3.945   4.337   6.239
  126DIO     F2 7007   4.001   4.459   6.248
  126DIO     C6 7008   4.029   4.219   6.244
  126DIO     F3 7009   4.163   4.232   6.251
  126DIO     C7 7010   3.589   4.179   6.216
  126DIO     C8 7011   3.512   4.252   6.114
  126DIO     C9 7012   3.367   4.240   6.105
  126DIO    C10 7013   3.295   4.162   6.203
  126DIO    C11 7014   3.367   4.083   6.301
  126DIO    C12 7015   3.511   4.093   6.308
  126DIO     F4 7016   3.576   4.023   6.403
  126DIO     O1 7017   3.163   4.136   6.175
  126DIO    C13 7018   3.068   4.127   6.277
  126DIO     O2 7019   3.067   4.167   6.396
  126DIO    C14 7020   2.939   4.076   6.230
  126DIO    C15 7021   2.873   4.130   6.109
  126DIO     F5 7022   2.935   4.223   6.033
  126DIO    C16 7023   2.742   4.085   6.065
  126DIO    C17 7024   2.666   3.989   6.143
  126DIO    C18 7025   2.735   3.921   6.253
  126DIO    C19 7026   2.866   3.965   6.296
  126DIO     F6 7027   2.929   3.888   6.388
  126DIO    C20 7028   2.525   3.949   6.105
  126DIO     O3 7029   2.456   4.050   6.031
  126DIO    C21 7030   2.412   4.158   6.113
  126DIO    C22 7031   2.323   4.108   6.226
  126DIO    C23 7032   2.404   4.003   6.302
  126DIO     O4 7033   2.448   3.900   6.215
  126DIO    C24 7034   2.190   4.047   6.176
  126DIO    C25 7035   2.100   4.140   6.096
  126DIO    C26 7036   2.061   4.268   6.169
  126DIO     H1 7037   3.782   3.974   6.230
  126DIO     H2 7038   3.740   4.414   6.237
  126DIO     H3 7039   3.564   4.313   6.040
  126DIO     H4 7040   3.312   4.287   6.024
  126DIO     H5 7041   3.313   4.021   6.371
  126DIO     H6 7042   2.704   4.123   5.971
  126DIO     H7 7043   2.692   3.834   6.300
  126DIO     H8 7044   2.535   3.865   6.036
  126DIO     H9 7045   2.499   4.212   6.153
  126DIO    H10 7046   2.359   4.230   6.049
  126DIO    H11 7047   2.301   4.191   6.294
  126DIO    H12 7048   2.343   3.957   6.380
  126DIO    H13 7049   2.490   4.049   6.352
  126DIO    H14 7050   2.210   3.958   6.115
  126DIO    H15 7051   2.134   4.012   6.264
  126DIO    H16 7052   2.147   4.166   6.000
  126DIO    H17 7053   2.008   4.085   6.070
  126DIO    H18 7054   2.017   4.245   6.267
  126DIO    H19 7055   2.148   4.333   6.184
  126DIO    H20 7056   1.988   4.324   6.111
  127DIO     F1 7057   2.773   2.659   1.180
  127DIO     C1 7058   2.695   2.575   1.252
  127DIO     C2 7059   2.551   2.592   1.249
  127DIO     C3 7060   2.462   2.503   1.327
  127DIO     C4 7061   2.528   2.397   1.406
  127DIO     C5 7062   2.672   2.382   1.408
  127DIO     F2 7063   2.728   2.281   1.477
  127DIO     C6 7064   2.756   2.471   1.330
  127DIO     F3 7065   2.890   2.457   1.333
  127DIO     C7 7066   2.316   2.519   1.327
  127DIO     C8 7067   2.239   2.526   1.453
  127DIO     C9 7068   2.094   2.541   1.452
  127DIO    C10 7069   2.022   2.540   1.327
  127DIO    C11 7070   2.094   2.541   1.201
  127DIO    C12 7071   2.238   2.529   1.201
  127DIO     F4 7072   2.303   2.525   1.083
  127DIO     O1 7073   1.889   2.579   1.332
  127DIO    C13 7074   1.795   2.522   1.247
  127DIO     O2 7075   1.794   2.416   1.179
  127DIO    C14 7076   1.666   2.592   1.252
  127DIO    C15 7077   1.600   2.625   1.380
  127DIO     F5 7078   1.662   2.600   1.497
  127DIO    C16 7079   1.469   2.687   1.386
  127DIO    C17 7080   1.393   2.714   1.265
  127DIO    C18 7081   1.462   2.698   1.137
  127DIO    C19 7082   1.593   2.637   1.131
  127DIO     F6 7083   1.656   2.638   1.011
  127DIO    C20 7084   1.252   2.768   1.270
  127DIO     O3 7085   1.183   2.736   1.391
  127DIO    C21 7086   1.139   2.600   1.395
  127DIO    C22 7087   1.050   2.568   1.275
  127DIO    C23 7088   1.131   2.603   1.150
  127DIO     O4 7089   1.175   2.738   1.154
  127DIO    C24 7090   0.917   2.647   1.275
  127DIO    C25 7091   0.827   2.625   1.397
  127DIO    C26 7092   0.788   2.480   1.419
  127DIO     H1 7093   2.509   2.671   1.188
  127DIO     H2 7094   2.467   2.323   1.458
  127DIO     H3 7095   2.290   2.525   1.548
  127DIO     H4 7096   2.039   2.555   1.544
  127DIO     H5 7097   2.040   2.546   1.107
  127DIO     H6 7098   1.431   2.717   1.483
  127DIO     H7 7099   1.419   2.736   1.045
  127DIO     H8 7100   1.262   2.877   1.271
  127DIO     H9 7101   1.226   2.533   1.397
  127DIO    H10 7102   1.086   2.585   1.489
  127DIO    H11 7103   1.027   2.461   1.274
  127DIO    H12 7104   1.070   2.590   1.060
  127DIO    H13 7105   1.217   2.536   1.139
  127DIO    H14 7106   0.937   2.755   1.267
  127DIO    H15 7107   0.861   2.620   1.185
  127DIO    H16 7108   0.874   2.665   1.487
  127DIO    H17 7109   0.735   2.684   1.382
  127DIO    H18 7110   0.744   2.436   1.329
  127DIO    H19 7111   0.875   2.419   1.448
  127DIO    H20 7112   0.714   2.473   1.500
  128DIO     F1 7113   3.345   1.110   8.467
  128DIO     C1 7114   3.268   1.150   8.364
  128DIO     C2 7115   3.124   1.137   8.375
  128DIO     C3 7116   3.035   1.178   8.263
  128DIO     C4 7117   3.100   1.235   8.143
  128DIO     C5 7118   3.245   1.247   8.135
  128DIO     F2 7119   3.300   1.303   8.026
  128DIO     C6 7120   3.328   1.206   8.245
  128DIO     F3 7121   3.462   1.216   8.236
  128DIO     C7 7122   2.889   1.164   8.272
  128DIO     C8 7123   2.811   1.098   8.164
  128DIO     C9 7124   2.667   1.085   8.171
  128DIO    C10 7125   2.594   1.146   8.282
  128DIO    C11 7126   2.667   1.204   8.393
  128DIO    C12 7127   2.811   1.215   8.386
  128DIO     F4 7128   2.876   1.275   8.488
  128DIO     O1 7129   2.462   1.109   8.295
  128DIO    C13 7130   2.367   1.199   8.343
  128DIO     O2 7131   2.367   1.325   8.353
  128DIO    C14 7132   2.238   1.136   8.372
  128DIO    C15 7133   2.172   1.046   8.274
  128DIO     F5 7134   2.235   1.013   8.160
  128DIO    C16 7135   2.041   0.988   8.298
  128DIO    C17 7136   1.965   1.022   8.418
  128DIO    C18 7137   2.034   1.097   8.523
  128DIO    C19 7138   2.166   1.154   8.500
  128DIO     F6 7139   2.228   1.209   8.606
  128DIO    C20 7140   1.825   0.972   8.439
  128DIO     O3 7141   1.755   0.943   8.317
  128DIO    C21 7142   1.711   1.061   8.250
  128DIO    C22 7143   1.622   1.145   8.340
  128DIO    C23 7144   1.703   1.174   8.467
  128DIO     O4 7145   1.747   1.053   8.527
  128DIO    C24 7146   1.490   1.076   8.377
  128DIO    C25 7147   1.399   1.038   8.260
  128DIO    C26 7148   1.361   1.155   8.171
  128DIO     H1 7149   3.081   1.096   8.466
  128DIO     H2 7150   3.040   1.275   8.063
  128DIO     H3 7151   2.863   1.054   8.079
  128DIO     H4 7152   2.612   1.030   8.097
  128DIO     H5 7153   2.612   1.245   8.477
  128DIO     H6 7154   2.003   0.916   8.227
  128DIO     H7 7155   1.991   1.106   8.622
  128DIO     H8 7156   1.834   0.875   8.490
  128DIO     H9 7157   1.798   1.118   8.216
  128DIO    H10 7158   1.659   1.030   8.159
  128DIO    H11 7159   1.600   1.240   8.291
  128DIO    H12 7160   1.642   1.228   8.540
  128DIO    H13 7161   1.789   1.239   8.444
  128DIO    H14 7162   1.510   0.985   8.435
  128DIO    H15 7163   1.433   1.142   8.444
  128DIO    H16 7164   1.446   0.960   8.199
  128DIO    H17 7165   1.307   0.993   8.300
  128DIO    H18 7166   1.317   1.236   8.230
  128DIO    H19 7167   1.447   1.195   8.117
  128DIO    H20 7168   1.287   1.124   8.097
  129DIO     F1 7169   8.602   9.841   1.806
  129DIO     C1 7170   8.525   9.732   1.816
  129DIO     C2 7171   8.381   9.747   1.823
  129DIO     C3 7172   8.292   9.629   1.837
  129DIO     C4 7173   8.357   9.496   1.840
  129DIO     C5 7174   8.502   9.484   1.833
  129DIO     F2 7175   8.557   9.361   1.832
  129DIO     C6 7176   8.585   9.601   1.820
  129DIO     F3 7177   8.719   9.588   1.815
  129DIO     C7 7178   8.145   9.643   1.845
  129DIO     C8 7179   8.068   9.576   1.953
  129DIO     C9 7180   7.924   9.589   1.961
  129DIO    C10 7181   7.851   9.660   1.857
  129DIO    C11 7182   7.924   9.733   1.755
  129DIO    C12 7183   8.068   9.722   1.748
  129DIO     F4 7184   8.133   9.786   1.649
  129DIO     O1 7185   7.719   9.689   1.884
  129DIO    C13 7186   7.624   9.691   1.782
  129DIO     O2 7187   7.623   9.643   1.665
  129DIO    C14 7188   7.495   9.745   1.825
  129DIO    C15 7189   7.429   9.698   1.949
  129DIO     F5 7190   7.492   9.611   2.031
  129DIO    C16 7191   7.298   9.746   1.990
  129DIO    C17 7192   7.222   9.837   1.906
  129DIO    C18 7193   7.291   9.898   1.792
  129DIO    C19 7194   7.423   9.851   1.752
  129DIO     F6 7195   7.485   9.921   1.655
  129DIO    C20 7196   7.082   9.879   1.942
  129DIO     O3 7197   7.012   9.783   2.022
  129DIO    C21 7198   6.968   9.670   1.947
  129DIO    C22 7199   6.879   9.713   1.831
  129DIO    C23 7200   6.960   9.812   1.748
  129DIO     O4 7201   7.004   9.921   1.829
  129DIO    C24 7202   6.747   9.777   1.877
  129DIO    C25 7203   6.656   9.689   1.963
  129DIO    C26 7204   6.617   9.557   1.898
  129DIO     H1 7205   8.338   9.846   1.818
  129DIO     H2 7206   8.297   9.406   1.840
  129DIO     H3 7207   8.120   9.521   2.030
  129DIO     H4 7208   7.869   9.547   2.044
  129DIO     H5 7209   7.869   9.790   1.681
  129DIO     H6 7210   7.260   9.715   2.087
  129DIO     H7 7211   7.248   9.982   1.739
  129DIO     H8 7212   7.091   9.968   2.005
  129DIO     H9 7213   7.055   9.614   1.911
  129DIO    H10 7214   6.915   9.603   2.016
  129DIO    H11 7215   6.857   9.625   1.769
  129DIO    H12 7216   6.899   9.854   1.667
  129DIO    H13 7217   7.046   9.764   1.701
  129DIO    H14 7218   6.766   9.870   1.932
  129DIO    H15 7219   6.690   9.806   1.787
  129DIO    H16 7220   6.703   9.670   2.060
  129DIO    H17 7221   6.564   9.746   1.985
  129DIO    H18 7222   6.574   9.573   1.799
  129DIO    H19 7223   6.704   9.491   1.888
  129DIO    H20 7224   6.544   9.505   1.960
  130DIO     F1 7225   2.131   5.269   6.006
  130DIO     C1 7226   2.054   5.164   6.038
  130DIO     C2 7227   1.910   5.180   6.042
  130DIO     C3 7228   1.821   5.068   6.079
  130DIO     C4 7229   1.886   4.938   6.109
  130DIO     C5 7230   2.031   4.924   6.104
  130DIO     F2 7231   2.086   4.804   6.128
  130DIO     C6 7232   2.114   5.036   6.068
  130DIO     F3 7233   2.248   5.023   6.065
  130DIO     C7 7234   1.674   5.083   6.085
  130DIO     C8 7235   1.597   5.039   6.203
  130DIO     C9 7236   1.453   5.053   6.209
  130DIO    C10 7237   1.380   5.102   6.093
  130DIO    C11 7238   1.452   5.153   5.978
  130DIO    C12 7239   1.597   5.141   5.974
  130DIO     F4 7240   1.661   5.185   5.864
  130DIO     O1 7241   1.248   5.135   6.113
  130DIO    C13 7242   1.153   5.117   6.013
  130DIO     O2 7243   1.152   5.047   5.908
  130DIO    C14 7244   1.024   5.179   6.045
  130DIO    C15 7245   0.958   5.158   6.175
  130DIO     F5 7246   1.020   5.088   6.273
  130DIO    C16 7247   0.827   5.213   6.207
  130DIO    C17 7248   0.751   5.285   6.105
  130DIO    C18 7249   0.820   5.322   5.982
  130DIO    C19 7250   0.952   5.268   5.952
  130DIO     F6 7251   1.014   5.318   5.843
  130DIO    C20 7252   0.611   5.333   6.132
  130DIO     O3 7253   0.541   5.255   6.230
  130DIO    C21 7254   0.497   5.130   6.179
  130DIO    C22 7255   0.408   5.148   6.057
  130DIO    C23 7256   0.489   5.230   5.956
  130DIO     O4 7257   0.533   5.352   6.013
  130DIO    C24 7258   0.275   5.221   6.089
  130DIO    C25 7259   0.185   5.152   6.191
  130DIO    C26 7260   0.146   5.009   6.154
  130DIO     H1 7261   1.867   5.277   6.018
  130DIO     H2 7262   1.826   4.850   6.127
  130DIO     H3 7263   1.649   5.000   6.290
  130DIO     H4 7264   1.397   5.028   6.298
  130DIO     H5 7265   1.398   5.195   5.894
  130DIO     H6 7266   0.789   5.201   6.307
  130DIO     H7 7267   0.777   5.394   5.914
  130DIO     H8 7268   0.620   5.433   6.177
  130DIO     H9 7269   0.584   5.067   6.155
  130DIO    H10 7270   0.444   5.078   6.260
  130DIO    H11 7271   0.386   5.050   6.013
  130DIO    H12 7272   0.428   5.254   5.868
  130DIO    H13 7273   0.575   5.172   5.919
  130DIO    H14 7274   0.295   5.322   6.124
  130DIO    H15 7275   0.219   5.232   5.995
  130DIO    H16 7276   0.232   5.152   6.290
  130DIO    H17 7277   0.093   5.211   6.201
  130DIO    H18 7278   0.102   5.005   6.053
  130DIO    H19 7279   0.233   4.942   6.156
  130DIO    H20 7280   0.073   4.971   6.225
  131DIO     F1 7281   5.723   7.470   0.764
  131DIO     C1 7282   5.645   7.579   0.755
  131DIO     C2 7283   5.501   7.564   0.747
  131DIO     C3 7284   5.412   7.682   0.735
  131DIO     C4 7285   5.478   7.815   0.733
  131DIO     C5 7286   5.622   7.827   0.740
  131DIO     F2 7287   5.677   7.950   0.742
  131DIO     C6 7288   5.706   7.710   0.752
  131DIO     F3 7289   5.839   7.723   0.757
  131DIO     C7 7290   5.266   7.668   0.726
  131DIO     C8 7291   5.189   7.736   0.619
  131DIO     C9 7292   5.044   7.723   0.611
  131DIO    C10 7293   4.971   7.651   0.714
  131DIO    C11 7294   5.044   7.577   0.816
  131DIO    C12 7295   5.188   7.588   0.823
  131DIO     F4 7296   5.253   7.523   0.921
  131DIO     O1 7297   4.839   7.623   0.687
  131DIO    C13 7298   4.745   7.620   0.789
  131DIO     O2 7299   4.744   7.666   0.906
  131DIO    C14 7300   4.616   7.566   0.745
  131DIO    C15 7301   4.549   7.614   0.622
  131DIO     F5 7302   4.612   7.702   0.541
  131DIO    C16 7303   4.418   7.567   0.580
  131DIO    C17 7304   4.343   7.474   0.664
  131DIO    C18 7305   4.411   7.413   0.777
  131DIO    C19 7306   4.543   7.459   0.817
  131DIO     F6 7307   4.606   7.388   0.914
  131DIO    C20 7308   4.202   7.433   0.628
  131DIO     O3 7309   4.132   7.530   0.548
  131DIO    C21 7310   4.089   7.642   0.624
  131DIO    C22 7311   4.000   7.598   0.740
  131DIO    C23 7312   4.080   7.498   0.822
  131DIO     O4 7313   4.125   7.390   0.740
  131DIO    C24 7314   3.867   7.534   0.694
  131DIO    C25 7315   3.776   7.623   0.608
  131DIO    C26 7316   3.738   7.754   0.674
  131DIO     H1 7317   5.458   7.464   0.751
  131DIO     H2 7318   5.417   7.905   0.733
  131DIO     H3 7319   5.240   7.792   0.543
  131DIO     H4 7320   4.989   7.766   0.528
  131DIO     H5 7321   4.989   7.519   0.889
  131DIO     H6 7322   4.380   7.599   0.484
  131DIO     H7 7323   4.369   7.328   0.829
  131DIO     H8 7324   4.212   7.345   0.563
  131DIO     H9 7325   4.175   7.698   0.661
  131DIO    H10 7326   4.036   7.710   0.556
  131DIO    H11 7327   3.977   7.685   0.803
  131DIO    H12 7328   4.019   7.456   0.902
  131DIO    H13 7329   4.167   7.546   0.869
  131DIO    H14 7330   3.887   7.442   0.638
  131DIO    H15 7331   3.810   7.504   0.783
  131DIO    H16 7332   3.824   7.643   0.511
  131DIO    H17 7333   3.684   7.567   0.585
  131DIO    H18 7334   3.694   7.737   0.773
  131DIO    H19 7335   3.824   7.820   0.685
  131DIO    H20 7336   3.664   7.807   0.612
  132DIO     F1 7337   5.862   9.845   1.627
  132DIO     C1 7338   5.784   9.736   1.643
  132DIO     C2 7339   5.640   9.752   1.650
  132DIO     C3 7340   5.551   9.635   1.669
  132DIO     C4 7341   5.617   9.502   1.680
  132DIO     C5 7342   5.761   9.489   1.673
  132DIO     F2 7343   5.816   9.367   1.679
  132DIO     C6 7344   5.845   9.606   1.654
  132DIO     F3 7345   5.978   9.592   1.649
  132DIO     C7 7346   5.405   9.649   1.677
  132DIO     C8 7347   5.328   9.588   1.788
  132DIO     C9 7348   5.183   9.601   1.795
  132DIO    C10 7349   5.110   9.667   1.688
  132DIO    C11 7350   5.183   9.734   1.582
  132DIO    C12 7351   5.327   9.723   1.576
  132DIO     F4 7352   5.392   9.782   1.474
  132DIO     O1 7353   4.978   9.697   1.713
  132DIO    C13 7354   4.884   9.693   1.611
  132DIO     O2 7355   4.883   9.640   1.497
  132DIO    C14 7356   4.755   9.750   1.652
  132DIO    C15 7357   4.688   9.710   1.778
  132DIO     F5 7358   4.751   9.627   1.864
  132DIO    C16 7359   4.557   9.759   1.817
  132DIO    C17 7360   4.482   9.846   1.728
  132DIO    C18 7361   4.550   9.901   1.611
  132DIO    C19 7362   4.682   9.852   1.573
  132DIO     F6 7363   4.745   9.917   1.473
  132DIO    C20 7364   4.341   9.890   1.761
  132DIO     O3 7365   4.271   9.798   1.847
  132DIO    C21 7366   4.228   9.681   1.778
  132DIO    C22 7367   4.139   9.718   1.659
  132DIO    C23 7368   4.219   9.813   1.571
  132DIO     O4 7369   4.264   9.926   1.646
  132DIO    C24 7370   4.006   9.785   1.701
  132DIO    C25 7371   3.915   9.701   1.793
  132DIO    C26 7372   3.877   9.566   1.735
  132DIO     H1 7373   5.597   9.851   1.640
  132DIO     H2 7374   5.556   9.413   1.684
  132DIO     H3 7375   5.379   9.537   1.868
  132DIO     H4 7376   5.128   9.564   1.881
  132DIO     H5 7377   5.128   9.788   1.505
  132DIO     H6 7378   4.519   9.733   1.915
  132DIO     H7 7379   4.508   9.982   1.554
  132DIO     H8 7380   4.351   9.982   1.820
  132DIO     H9 7381   4.314   9.623   1.744
  132DIO    H10 7382   4.175   9.618   1.850
  132DIO    H11 7383   4.116   9.628   1.602
  132DIO    H12 7384   4.158   9.850   1.488
  132DIO    H13 7385   4.306   9.762   1.527
  132DIO    H14 7386   4.026   9.880   1.752
  132DIO    H15 7387   3.949   9.809   1.611
  132DIO    H16 7388   3.963   9.687   1.891
  132DIO    H17 7389   3.823   9.759   1.811
  132DIO    H18 7390   3.833   9.577   1.635
  132DIO    H19 7391   3.963   9.500   1.727
  132DIO    H20 7392   3.803   9.517   1.799
  133DIO     F1 7393   9.796   3.712   0.261
  133DIO     C1 7394   9.718   3.608   0.226
  133DIO     C2 7395   9.574   3.619   0.238
  133DIO     C3 7396   9.485   3.506   0.203
  133DIO     C4 7397   9.551   3.384   0.151
  133DIO     C5 7398   9.695   3.375   0.139
  133DIO     F2 7399   9.751   3.263   0.088
  133DIO     C6 7400   9.779   3.487   0.176
  133DIO     F3 7401   9.913   3.477   0.165
  133DIO     C7 7402   9.339   3.515   0.216
  133DIO     C8 7403   9.262   3.410   0.286
  133DIO     C9 7404   9.117   3.418   0.299
  133DIO    C10 7405   9.045   3.526   0.234
  133DIO    C11 7406   9.117   3.634   0.170
  133DIO    C12 7407   9.261   3.627   0.160
  133DIO     F4 7408   9.326   3.727   0.096
  133DIO     O1 7409   8.912   3.541   0.270
  133DIO    C13 7410   8.818   3.585   0.177
  133DIO     O2 7411   8.817   3.589   0.052
  133DIO    C14 7412   8.689   3.616   0.240
  133DIO    C15 7413   8.623   3.523   0.333
  133DIO     F5 7414   8.685   3.410   0.372
  133DIO    C16 7415   8.492   3.549   0.391
  133DIO    C17 7416   8.416   3.667   0.351
  133DIO    C18 7417   8.485   3.769   0.272
  133DIO    C19 7418   8.616   3.743   0.216
  133DIO     F6 7419   8.679   3.847   0.157
  133DIO    C20 7420   8.275   3.691   0.401
  133DIO     O3 7421   8.206   3.570   0.435
  133DIO    C21 7422   8.162   3.498   0.320
  133DIO    C22 7423   8.073   3.584   0.231
  133DIO    C23 7424   8.154   3.710   0.197
  133DIO     O4 7425   8.198   3.775   0.315
  133DIO    C24 7426   7.940   3.625   0.300
  133DIO    C25 7427   7.850   3.509   0.343
  133DIO    C26 7428   7.811   3.415   0.229
  133DIO     H1 7429   9.532   3.712   0.275
  133DIO     H2 7430   9.490   3.302   0.114
  133DIO     H3 7431   9.313   3.328   0.334
  133DIO     H4 7432   9.062   3.346   0.358
  133DIO     H5 7433   9.063   3.717   0.127
  133DIO     H6 7434   8.454   3.481   0.466
  133DIO     H7 7435   8.442   3.867   0.258
  133DIO     H8 7436   8.285   3.746   0.495
  133DIO     H9 7437   8.249   3.462   0.264
  133DIO    H10 7438   8.109   3.409   0.355
  133DIO    H11 7439   8.050   3.531   0.139
  133DIO    H12 7440   8.093   3.780   0.140
  133DIO    H13 7441   8.240   3.684   0.134
  133DIO    H14 7442   7.960   3.686   0.388
  133DIO    H15 7443   7.884   3.688   0.230
  133DIO    H16 7444   7.897   3.451   0.423
  133DIO    H17 7445   7.758   3.551   0.385
  133DIO    H18 7446   7.767   3.470   0.145
  133DIO    H19 7447   7.898   3.359   0.192
  133DIO    H20 7448   7.737   3.342   0.264
  134DIO     F1 7449   2.130   7.686   3.610
  134DIO     C1 7450   2.053   7.617   3.696
  134DIO     C2 7451   1.908   7.633   3.690
  134DIO     C3 7452   1.820   7.561   3.783
  134DIO     C4 7453   1.885   7.471   3.881
  134DIO     C5 7454   2.029   7.457   3.885
  134DIO     F2 7455   2.085   7.371   3.973
  134DIO     C6 7456   2.113   7.529   3.792
  134DIO     F3 7457   2.247   7.516   3.798
  134DIO     C7 7458   1.673   7.577   3.780
  134DIO     C8 7459   1.596   7.607   3.902
  134DIO     C9 7460   1.451   7.622   3.899
  134DIO    C10 7461   1.379   7.597   3.776
  134DIO    C11 7462   1.451   7.574   3.652
  134DIO    C12 7463   1.595   7.562   3.655
  134DIO     F4 7464   1.660   7.536   3.540
  134DIO     O1 7465   1.247   7.636   3.774
  134DIO    C13 7466   1.152   7.564   3.701
  134DIO     O2 7467   1.151   7.448   3.654
  134DIO    C14 7468   1.023   7.633   3.693
  134DIO    C15 7469   0.957   7.690   3.812
  134DIO     F5 7470   1.019   7.687   3.932
  134DIO    C16 7471   0.826   7.753   3.807
  134DIO    C17 7472   0.750   7.756   3.682
  134DIO    C18 7473   0.819   7.716   3.560
  134DIO    C19 7474   0.951   7.655   3.565
  134DIO     F6 7475   1.013   7.634   3.447
  134DIO    C20 7476   0.609   7.810   3.678
  134DIO     O3 7477   0.540   7.801   3.802
  134DIO    C21 7478   0.496   7.669   3.831
  134DIO    C22 7479   0.407   7.615   3.720
  134DIO    C23 7480   0.488   7.625   3.590
  134DIO     O4 7481   0.532   7.759   3.569
  134DIO    C24 7482   0.274   7.693   3.705
  134DIO    C25 7483   0.184   7.694   3.829
  134DIO    C26 7484   0.145   7.555   3.878
  134DIO     H1 7485   1.866   7.699   3.615
  134DIO     H2 7486   1.825   7.408   3.946
  134DIO     H3 7487   1.648   7.624   3.996
  134DIO     H4 7488   1.396   7.652   3.987
  134DIO     H5 7489   1.397   7.561   3.559
  134DIO     H6 7490   0.788   7.800   3.897
  134DIO     H7 7491   0.776   7.737   3.463
  134DIO     H8 7492   0.619   7.918   3.658
  134DIO     H9 7493   0.583   7.604   3.846
  134DIO    H10 7494   0.443   7.671   3.927
  134DIO    H11 7495   0.385   7.510   3.739
  134DIO    H12 7496   0.427   7.596   3.504
  134DIO    H13 7497   0.574   7.557   3.593
  134DIO    H14 7498   0.294   7.797   3.677
  134DIO    H15 7499   0.218   7.649   3.622
  134DIO    H16 7500   0.231   7.750   3.910
  134DIO    H17 7501   0.092   7.748   3.803
  134DIO    H18 7502   0.101   7.495   3.798
  134DIO    H19 7503   0.232   7.501   3.918
  134DIO    H20 7504   0.072   7.563   3.959
  135DIO     F1 7505   3.265   6.546   5.563
  135DIO     C1 7506   3.187   6.540   5.453
  135DIO     C2 7507   3.043   6.533   5.468
  135DIO     C3 7508   2.954   6.524   5.350
  135DIO     C4 7509   3.020   6.527   5.217
  135DIO     C5 7510   3.164   6.534   5.205
  135DIO     F2 7511   3.220   6.541   5.082
  135DIO     C6 7512   3.248   6.542   5.322
  135DIO     F3 7513   3.382   6.548   5.309
  135DIO     C7 7514   2.808   6.515   5.363
  135DIO     C8 7515   2.731   6.411   5.292
  135DIO     C9 7516   2.586   6.402   5.304
  135DIO    C10 7517   2.514   6.502   5.380
  135DIO    C11 7518   2.586   6.602   5.457
  135DIO    C12 7519   2.730   6.609   5.447
  135DIO     F4 7520   2.795   6.705   5.515
  135DIO     O1 7521   2.381   6.474   5.407
  135DIO    C13 7522   2.287   6.576   5.413
  135DIO     O2 7523   2.286   6.695   5.371
  135DIO    C14 7524   2.158   6.531   5.466
  135DIO    C15 7525   2.092   6.409   5.414
  135DIO     F5 7526   2.154   6.331   5.323
  135DIO    C16 7527   1.961   6.365   5.460
  135DIO    C17 7528   1.885   6.446   5.555
  135DIO    C18 7529   1.954   6.557   5.620
  135DIO    C19 7530   2.085   6.599   5.575
  135DIO     F6 7531   2.148   6.693   5.650
  135DIO    C20 7532   1.744   6.408   5.595
  135DIO     O3 7533   1.675   6.332   5.495
  135DIO    C21 7534   1.631   6.412   5.386
  135DIO    C22 7535   1.542   6.526   5.433
  135DIO    C23 7536   1.623   6.605   5.537
  135DIO     O4 7537   1.667   6.519   5.642
  135DIO    C24 7538   1.409   6.478   5.496
  135DIO    C25 7539   1.319   6.395   5.404
  135DIO    C26 7540   1.280   6.466   5.275
  135DIO     H1 7541   3.001   6.533   5.568
  135DIO     H2 7542   2.959   6.531   5.127
  135DIO     H3 7543   2.782   6.336   5.233
  135DIO     H4 7544   2.531   6.321   5.259
  135DIO     H5 7545   2.532   6.673   5.518
  135DIO     H6 7546   1.923   6.270   5.424
  135DIO     H7 7547   1.911   6.606   5.706
  135DIO     H8 7548   1.754   6.341   5.681
  135DIO     H9 7549   1.718   6.451   5.331
  135DIO    H10 7550   1.578   6.346   5.316
  135DIO    H11 7551   1.519   6.592   5.349
  135DIO    H12 7552   1.562   6.684   5.582
  135DIO    H13 7553   1.709   6.654   5.490
  135DIO    H14 7554   1.429   6.419   5.586
  135DIO    H15 7555   1.353   6.566   5.529
  135DIO    H16 7556   1.366   6.299   5.381
  135DIO    H17 7557   1.227   6.371   5.459
  135DIO    H18 7558   1.236   6.564   5.296
  135DIO    H19 7559   1.367   6.479   5.210
  135DIO    H20 7560   1.206   6.406   5.220
  136DIO     F1 7561   7.394   6.222   2.581
  136DIO     C1 7562   7.316   6.148   2.499
  136DIO     C2 7563   7.172   6.152   2.516
  136DIO     C3 7564   7.083   6.071   2.429
  136DIO     C4 7565   7.149   5.990   2.324
  136DIO     C5 7566   7.293   5.988   2.310
  136DIO     F2 7567   7.348   5.916   2.210
  136DIO     C6 7568   7.377   6.067   2.396
  136DIO     F3 7569   7.510   6.064   2.382
  136DIO     C7 7570   6.937   6.072   2.445
  136DIO     C8 7571   6.860   5.946   2.455
  136DIO     C9 7572   6.715   5.947   2.470
  136DIO    C10 7573   6.642   6.073   2.466
  136DIO    C11 7574   6.715   6.199   2.464
  136DIO    C12 7575   6.859   6.198   2.451
  136DIO     F4 7576   6.924   6.316   2.444
  136DIO     O1 7577   6.510   6.068   2.505
  136DIO    C13 7578   6.416   6.152   2.446
  136DIO     O2 7579   6.415   6.218   2.339
  136DIO    C14 7580   6.286   6.149   2.515
  136DIO    C15 7581   6.220   6.022   2.552
  136DIO     F5 7582   6.283   5.904   2.529
  136DIO    C16 7583   6.089   6.016   2.614
  136DIO    C17 7584   6.014   6.139   2.638
  136DIO    C18 7585   6.082   6.266   2.619
  136DIO    C19 7586   6.214   6.271   2.558
  136DIO     F6 7587   6.276   6.391   2.557
  136DIO    C20 7588   5.873   6.134   2.692
  136DIO     O3 7589   5.803   6.013   2.663
  136DIO    C21 7590   5.759   6.006   2.528
  136DIO    C22 7591   5.671   6.125   2.493
  136DIO    C23 7592   5.751   6.251   2.524
  136DIO     O4 7593   5.796   6.250   2.660
  136DIO    C24 7594   5.538   6.127   2.572
  136DIO    C25 7595   5.447   6.005   2.552
  136DIO    C26 7596   5.409   5.979   2.408
  136DIO     H1 7597   7.129   6.215   2.593
  136DIO     H2 7598   7.088   5.936   2.252
  136DIO     H3 7599   6.911   5.851   2.456
  136DIO     H4 7600   6.660   5.856   2.486
  136DIO     H5 7601   6.660   6.292   2.466
  136DIO     H6 7602   6.051   5.920   2.646
  136DIO     H7 7603   6.039   6.358   2.655
  136DIO     H8 7604   5.883   6.136   2.802
  136DIO     H9 7605   5.846   6.002   2.461
  136DIO    H10 7606   5.707   5.911   2.514
  136DIO    H11 7607   5.648   6.124   2.386
  136DIO    H12 7608   5.690   6.341   2.510
  136DIO    H13 7609   5.837   6.260   2.457
  136DIO    H14 7610   5.558   6.137   2.679
  136DIO    H15 7611   5.481   6.216   2.542
  136DIO    H16 7612   5.494   5.915   2.594
  136DIO    H17 7613   5.355   6.021   2.611
  136DIO    H18 7614   5.365   6.068   2.362
  136DIO    H19 7615   5.495   5.948   2.348
  136DIO    H20 7616   5.335   5.898   2.402
  137DIO     F1 7617   2.889   2.760   9.280
  137DIO     C1 7618   2.811   2.723   9.177
  137DIO     C2 7619   2.667   2.720   9.193
  137DIO     C3 7620   2.579   2.678   9.083
  137DIO     C4 7621   2.644   2.642   8.955
  137DIO     C5 7622   2.788   2.646   8.941
  137DIO     F2 7623   2.844   2.616   8.821
  137DIO     C6 7624   2.872   2.687   9.051
  137DIO     F3 7625   3.006   2.689   9.037
  137DIO     C7 7626   2.432   2.673   9.098
  137DIO     C8 7627   2.355   2.552   9.059
  137DIO     C9 7628   2.210   2.547   9.074
  137DIO    C10 7629   2.138   2.665   9.117
  137DIO    C11 7630   2.210   2.783   9.163
  137DIO    C12 7631   2.354   2.786   9.151
  137DIO     F4 7632   2.419   2.898   9.189
  137DIO     O1 7633   2.006   2.646   9.152
  137DIO    C13 7634   1.911   2.746   9.129
  137DIO     O2 7635   1.910   2.847   9.054
  137DIO    C14 7636   1.782   2.717   9.192
  137DIO    C15 7637   1.716   2.585   9.177
  137DIO     F5 7638   1.778   2.485   9.112
  137DIO    C16 7639   1.585   2.557   9.233
  137DIO    C17 7640   1.509   2.662   9.301
  137DIO    C18 7641   1.578   2.786   9.332
  137DIO    C19 7642   1.709   2.814   9.277
  137DIO     F6 7643   1.772   2.925   9.321
  137DIO    C20 7644   1.368   2.637   9.350
  137DIO     O3 7645   1.299   2.535   9.277
  137DIO    C21 7646   1.255   2.580   9.149
  137DIO    C22 7647   1.166   2.704   9.162
  137DIO    C23 7648   1.247   2.808   9.239
  137DIO     O4 7649   1.291   2.757   9.364
  137DIO    C24 7650   1.033   2.675   9.236
  137DIO    C25 7651   0.943   2.570   9.172
  137DIO    C26 7652   0.904   2.600   9.028
  137DIO     H1 7653   2.625   2.748   9.289
  137DIO     H2 7654   2.583   2.620   8.867
  137DIO     H3 7655   2.407   2.464   9.025
  137DIO     H4 7656   2.155   2.457   9.054
  137DIO     H5 7657   2.156   2.868   9.201
  137DIO     H6 7658   1.547   2.456   9.226
  137DIO     H7 7659   1.535   2.858   9.401
  137DIO     H8 7660   1.378   2.597   9.452
  137DIO     H9 7661   1.342   2.602   9.086
  137DIO    H10 7662   1.202   2.498   9.101
  137DIO    H11 7663   1.144   2.743   9.062
  137DIO    H12 7664   1.186   2.897   9.259
  137DIO    H13 7665   1.333   2.842   9.180
  137DIO    H14 7666   1.053   2.644   9.339
  137DIO    H15 7667   0.977   2.769   9.242
  137DIO    H16 7668   0.990   2.471   9.177
  137DIO    H17 7669   0.851   2.562   9.232
  137DIO    H18 7670   0.860   2.700   9.019
  137DIO    H19 7671   0.991   2.594   8.961
  137DIO    H20 7672   0.831   2.527   8.992
  138DIO     F1 7673   9.158   5.417   2.257
  138DIO     C1 7674   9.080   5.432   2.366
  138DIO     C2 7675   8.936   5.439   2.350
  138DIO     C3 7676   8.848   5.457   2.467
  138DIO     C4 7677   8.913   5.466   2.600
  138DIO     C5 7678   9.057   5.459   2.612
  138DIO     F2 7679   9.113   5.463   2.735
  138DIO     C6 7680   9.141   5.442   2.496
  138DIO     F3 7681   9.275   5.437   2.509
  138DIO     C7 7682   8.701   5.465   2.453
  138DIO     C8 7683   8.624   5.575   2.515
  138DIO     C9 7684   8.479   5.583   2.502
  138DIO    C10 7685   8.407   5.476   2.435
  138DIO    C11 7686   8.479   5.371   2.367
  138DIO    C12 7687   8.623   5.365   2.378
  138DIO     F4 7688   8.688   5.263   2.318
  138DIO     O1 7689   8.275   5.502   2.406
  138DIO    C13 7690   8.180   5.399   2.408
  138DIO     O2 7691   8.179   5.285   2.460
  138DIO    C14 7692   8.051   5.441   2.352
  138DIO    C15 7693   7.985   5.567   2.393
  138DIO     F5 7694   8.047   5.652   2.477
  138DIO    C16 7695   7.854   5.606   2.344
  138DIO    C17 7696   7.778   5.517   2.256
  138DIO    C18 7697   7.847   5.402   2.201
  138DIO    C19 7698   7.978   5.363   2.249
  138DIO     F6 7699   8.041   5.263   2.183
  138DIO    C20 7700   7.637   5.552   2.213
  138DIO     O3 7701   7.568   5.636   2.306
  138DIO    C21 7702   7.524   5.566   2.422
  138DIO    C22 7703   7.435   5.448   2.384
  138DIO    C23 7704   7.516   5.361   2.288
  138DIO     O4 7705   7.560   5.437   2.176
  138DIO    C24 7706   7.302   5.491   2.318
  138DIO    C25 7707   7.212   5.581   2.402
  138DIO    C26 7708   7.173   5.522   2.536
  138DIO     H1 7709   8.894   5.430   2.251
  138DIO     H2 7710   8.852   5.470   2.689
  138DIO     H3 7711   8.676   5.654   2.567
  138DIO     H4 7712   8.424   5.667   2.540
  138DIO     H5 7713   8.425   5.295   2.313
  138DIO     H6 7714   7.816   5.703   2.371
  138DIO     H7 7715   7.804   5.345   2.119
  138DIO     H8 7716   7.647   5.611   2.122
  138DIO     H9 7717   7.611   5.532   2.479
  138DIO    H10 7718   7.471   5.637   2.486
  138DIO    H11 7719   7.413   5.389   2.474
  138DIO    H12 7720   7.455   5.278   2.250
  138DIO    H13 7721   7.602   5.316   2.338
  138DIO    H14 7722   7.322   5.542   2.223
  138DIO    H15 7723   7.246   5.400   2.292
  138DIO    H16 7724   7.259   5.679   2.417
  138DIO    H17 7725   7.120   5.600   2.345
  138DIO    H18 7726   7.129   5.422   2.524
  138DIO    H19 7727   7.260   5.514   2.603
  138DIO    H20 7728   7.100   5.586   2.586
  139DIO     F1 7729   5.131   8.296   3.608
  139DIO     C1 7730   5.053   8.397   3.564
  139DIO     C2 7731   4.909   8.380   3.562
  139DIO     C3 7732   4.820   8.488   3.513
  139DIO     C4 7733   4.886   8.613   3.468
  139DIO     C5 7734   5.030   8.627   3.471
  139DIO     F2 7735   5.085   8.744   3.434
  139DIO     C6 7736   5.114   8.520   3.520
  139DIO     F3 7737   5.247   8.534   3.521
  139DIO     C7 7738   4.674   8.472   3.509
  139DIO     C8 7739   4.597   8.503   3.386
  139DIO     C9 7740   4.452   8.488   3.382
  139DIO    C10 7741   4.379   8.453   3.503
  139DIO    C11 7742   4.452   8.415   3.623
  139DIO    C12 7743   4.596   8.427   3.626
  139DIO     F4 7744   4.661   8.397   3.740
  139DIO     O1 7745   4.247   8.417   3.486
  139DIO    C13 7746   4.153   8.447   3.584
  139DIO     O2 7747   4.152   8.528   3.680
  139DIO    C14 7748   4.024   8.382   3.560
  139DIO    C15 7749   3.957   8.387   3.428
  139DIO     F5 7750   4.020   8.445   3.323
  139DIO    C16 7751   3.826   8.329   3.403
  139DIO    C17 7752   3.751   8.269   3.512
  139DIO    C18 7753   3.819   8.247   3.639
  139DIO    C19 7754   3.951   8.304   3.662
  139DIO     F6 7755   4.014   8.267   3.776
  139DIO    C20 7756   3.610   8.218   3.491
  139DIO     O3 7757   3.540   8.284   3.385
  139DIO    C21 7758   3.497   8.415   3.420
  139DIO    C22 7759   3.408   8.411   3.544
  139DIO    C23 7760   3.488   8.341   3.654
  139DIO     O4 7761   3.533   8.213   3.611
  139DIO    C24 7762   3.275   8.335   3.521
  139DIO    C25 7763   3.184   8.392   3.411
  139DIO    C26 7764   3.146   8.537   3.432
  139DIO     H1 7765   4.866   8.287   3.598
  139DIO     H2 7766   4.825   8.699   3.440
  139DIO     H3 7767   4.648   8.531   3.296
  139DIO     H4 7768   4.397   8.502   3.290
  139DIO     H5 7769   4.397   8.383   3.711
  139DIO     H6 7770   3.788   8.329   3.302
  139DIO     H7 7771   3.777   8.183   3.715
  139DIO     H8 7772   3.620   8.114   3.458
  139DIO     H9 7773   3.583   8.480   3.437
  139DIO    H10 7774   3.444   8.457   3.335
  139DIO    H11 7775   3.385   8.513   3.576
  139DIO    H12 7776   3.427   8.327   3.744
  139DIO    H13 7777   3.575   8.403   3.684
  139DIO    H14 7778   3.295   8.230   3.497
  139DIO    H15 7779   3.218   8.335   3.615
  139DIO    H16 7780   3.232   8.380   3.313
  139DIO    H17 7781   3.092   8.331   3.408
  139DIO    H18 7782   3.102   8.553   3.531
  139DIO    H19 7783   3.232   8.603   3.422
  139DIO    H20 7784   3.072   8.568   3.357
  140DIO     F1 7785   7.673   5.426   7.350
  140DIO     C1 7786   7.595   5.430   7.240
  140DIO     C2 7787   7.451   5.421   7.254
  140DIO     C3 7788   7.362   5.423   7.135
  140DIO     C4 7789   7.428   5.437   7.003
  140DIO     C5 7790   7.572   5.446   6.992
  140DIO     F2 7791   7.628   5.462   6.870
  140DIO     C6 7792   7.656   5.443   7.109
  140DIO     F3 7793   7.790   5.450   7.097
  140DIO     C7 7794   7.216   5.413   7.148
  140DIO     C8 7795   7.139   5.315   7.068
  140DIO     C9 7796   6.994   5.305   7.079
  140DIO    C10 7797   6.922   5.399   7.163
  140DIO    C11 7798   6.994   5.491   7.249
  140DIO    C12 7799   7.138   5.499   7.239
  140DIO     F4 7800   7.203   5.589   7.316
  140DIO     O1 7801   6.789   5.368   7.188
  140DIO    C13 7802   6.695   5.469   7.203
  140DIO     O2 7803   6.694   5.591   7.171
  140DIO    C14 7804   6.566   5.419   7.252
  140DIO    C15 7805   6.500   5.302   7.189
  140DIO     F5 7806   6.562   5.233   7.092
  140DIO    C16 7807   6.369   5.255   7.231
  140DIO    C17 7808   6.293   5.327   7.333
  140DIO    C18 7809   6.362   5.432   7.407
  140DIO    C19 7810   6.493   5.478   7.366
  140DIO     F6 7811   6.556   5.565   7.449
  140DIO    C20 7812   6.152   5.286   7.369
  140DIO     O3 7813   6.083   5.219   7.264
  140DIO    C21 7814   6.039   5.308   7.161
  140DIO    C22 7815   5.950   5.418   7.219
  140DIO    C23 7816   6.031   5.487   7.329
  140DIO     O4 7817   6.075   5.393   7.426
  140DIO    C24 7818   5.817   5.364   7.277
  140DIO    C25 7819   5.727   5.290   7.178
  140DIO    C26 7820   5.688   5.371   7.056
  140DIO     H1 7821   7.409   5.413   7.353
  140DIO     H2 7822   7.367   5.448   6.914
  140DIO     H3 7823   7.190   5.245   7.003
  140DIO     H4 7824   6.939   5.228   7.027
  140DIO     H5 7825   6.940   5.557   7.315
  140DIO     H6 7826   6.331   5.164   7.187
  140DIO     H7 7827   6.319   5.474   7.498
  140DIO     H8 7828   6.162   5.212   7.449
  140DIO     H9 7829   6.126   5.351   7.111
  140DIO    H10 7830   5.986   5.249   7.086
  140DIO    H11 7831   5.927   5.491   7.140
  140DIO    H12 7832   5.970   5.562   7.380
  140DIO    H13 7833   6.117   5.540   7.286
  140DIO    H14 7834   5.837   5.297   7.362
  140DIO    H15 7835   5.761   5.449   7.318
  140DIO    H16 7836   5.774   5.196   7.147
  140DIO    H17 7837   5.635   5.261   7.231
  140DIO    H18 7838   5.644   5.467   7.085
  140DIO    H19 7839   5.775   5.390   6.992
  140DIO    H20 7840   5.614   5.317   6.996
  141DIO     F1 7841   9.955   6.790   5.840
  141DIO     C1 7842   9.877   6.834   5.739
  141DIO     C2 7843   9.733   6.820   5.749
  141DIO     C3 7844   9.644   6.865   5.639
  141DIO     C4 7845   9.710   6.927   5.521
  141DIO     C5 7846   9.854   6.939   5.514
  141DIO     F2 7847   9.910   6.999   5.407
  141DIO     C6 7848   9.938   6.894   5.622
  141DIO     F3 7849  10.072   6.905   5.614
  141DIO     C7 7850   9.498   6.851   5.647
  141DIO     C8 7851   9.421   6.790   5.536
  141DIO     C9 7852   9.276   6.776   5.544
  141DIO    C10 7853   9.204   6.832   5.656
  141DIO    C11 7854   9.276   6.887   5.770
  141DIO    C12 7855   9.420   6.898   5.763
  141DIO     F4 7856   9.485   6.953   5.868
  141DIO     O1 7857   9.071   6.795   5.668
  141DIO    C13 7858   8.977   6.884   5.719
  141DIO     O2 7859   8.976   7.009   5.735
  141DIO    C14 7860   8.848   6.819   5.746
  141DIO    C15 7861   8.781   6.733   5.645
  141DIO     F5 7862   8.844   6.705   5.529
  141DIO    C16 7863   8.651   6.674   5.666
  141DIO    C17 7864   8.575   6.704   5.788
  141DIO    C18 7865   8.644   6.774   5.895
  141DIO    C19 7866   8.775   6.832   5.874
  141DIO     F6 7867   8.838   6.882   5.983
  141DIO    C20 7868   8.434   6.652   5.806
  141DIO     O3 7869   8.364   6.628   5.684
  141DIO    C21 7870   8.321   6.749   5.621
  141DIO    C22 7871   8.232   6.830   5.715
  141DIO    C23 7872   8.313   6.854   5.842
  141DIO     O4 7873   8.357   6.730   5.898
  141DIO    C24 7874   8.099   6.759   5.749
  141DIO    C25 7875   8.008   6.725   5.630
  141DIO    C26 7876   7.970   6.846   5.546
  141DIO     H1 7877   9.691   6.776   5.838
  141DIO     H2 7878   9.649   6.970   5.443
  141DIO     H3 7879   9.472   6.749   5.450
  141DIO     H4 7880   9.221   6.724   5.467
  141DIO     H5 7881   9.222   6.923   5.856
  141DIO     H6 7882   8.613   6.605   5.592
  141DIO     H7 7883   8.601   6.779   5.995
  141DIO     H8 7884   8.444   6.554   5.853
  141DIO     H9 7885   8.407   6.808   5.590
  141DIO    H10 7886   8.268   6.721   5.529
  141DIO    H11 7887   8.209   6.927   5.669
  141DIO    H12 7888   8.252   6.904   5.918
  141DIO    H13 7889   8.399   6.919   5.822
  141DIO    H14 7890   8.119   6.665   5.803
  141DIO    H15 7891   8.043   6.823   5.818
  141DIO    H16 7892   8.056   6.650   5.566
  141DIO    H17 7893   7.917   6.679   5.669
  141DIO    H18 7894   7.926   6.925   5.608
  141DIO    H19 7895   8.057   6.888   5.494
  141DIO    H20 7896   7.896   6.818   5.471
  142DIO     F1 7897   2.508   4.495   3.578
  142DIO     C1 7898   2.431   4.598   3.616
  142DIO     C2 7899   2.287   4.588   3.603
  142DIO     C3 7900   2.198   4.700   3.641
  142DIO     C4 7901   2.263   4.821   3.695
  142DIO     C5 7902   2.408   4.829   3.707
  142DIO     F2 7903   2.463   4.940   3.761
  142DIO     C6 7904   2.491   4.718   3.668
  142DIO     F3 7905   2.625   4.728   3.679
  142DIO     C7 7906   2.052   4.691   3.627
  142DIO     C8 7907   1.974   4.798   3.559
  142DIO     C9 7908   1.830   4.790   3.546
  142DIO    C10 7909   1.757   4.681   3.609
  142DIO    C11 7910   1.830   4.571   3.670
  142DIO    C12 7911   1.974   4.578   3.681
  142DIO     F4 7912   2.039   4.477   3.743
  142DIO     O1 7913   1.625   4.667   3.573
  142DIO    C13 7914   1.530   4.621   3.664
  142DIO     O2 7915   1.530   4.613   3.790
  142DIO    C14 7916   1.401   4.590   3.601
  142DIO    C15 7917   1.335   4.686   3.510
  142DIO     F5 7918   1.398   4.800   3.474
  142DIO    C16 7919   1.204   4.661   3.452
  142DIO    C17 7920   1.128   4.542   3.489
  142DIO    C18 7921   1.197   4.438   3.566
  142DIO    C19 7922   1.329   4.463   3.622
  142DIO     F6 7923   1.391   4.358   3.679
  142DIO    C20 7924   0.988   4.520   3.439
  142DIO     O3 7925   0.918   4.641   3.407
  142DIO    C21 7926   0.874   4.711   3.524
  142DIO    C22 7927   0.785   4.622   3.610
  142DIO    C23 7928   0.866   4.496   3.642
  142DIO     O4 7929   0.910   4.433   3.522
  142DIO    C24 7930   0.653   4.583   3.541
  142DIO    C25 7931   0.562   4.700   3.501
  142DIO    C26 7932   0.524   4.791   3.616
  142DIO     H1 7933   2.244   4.496   3.564
  142DIO     H2 7934   2.203   4.902   3.734
  142DIO     H3 7935   2.026   4.881   3.513
  142DIO     H4 7936   1.775   4.863   3.489
  142DIO     H5 7937   1.775   4.487   3.712
  142DIO     H6 7938   1.166   4.731   3.378
  142DIO     H7 7939   1.154   4.340   3.577
  142DIO     H8 7940   0.997   4.467   3.343
  142DIO     H9 7941   0.961   4.746   3.581
  142DIO    H10 7942   0.822   4.801   3.491
  142DIO    H11 7943   0.763   4.674   3.704
  142DIO    H12 7944   0.805   4.424   3.697
  142DIO    H13 7945   0.952   4.520   3.706
  142DIO    H14 7946   0.673   4.524   3.452
  142DIO    H15 7947   0.596   4.518   3.609
  142DIO    H16 7948   0.609   4.759   3.422
  142DIO    H17 7949   0.470   4.659   3.457
  142DIO    H18 7950   0.480   4.734   3.699
  142DIO    H19 7951   0.610   4.846   3.655
  142DIO    H20 7952   0.450   4.865   3.583
  143DIO     F1 7953   4.617   2.612   6.245
  143DIO     C1 7954   4.539   2.553   6.338
  143DIO     C2 7955   4.395   2.568   6.330
  143DIO     C3 7956   4.307   2.506   6.431
  143DIO     C4 7957   4.372   2.427   6.538
  143DIO     C5 7958   4.516   2.413   6.543
  143DIO     F2 7959   4.572   2.337   6.640
  143DIO     C6 7960   4.600   2.475   6.444
  143DIO     F3 7961   4.734   2.463   6.450
  143DIO     C7 7962   4.160   2.521   6.426
  143DIO     C8 7963   4.083   2.564   6.545
  143DIO     C9 7964   3.938   2.579   6.540
  143DIO    C10 7965   3.866   2.541   6.420
  143DIO    C11 7966   3.938   2.506   6.299
  143DIO    C12 7967   4.082   2.494   6.304
  143DIO     F4 7968   4.147   2.455   6.192
  143DIO     O1 7969   3.734   2.580   6.414
  143DIO    C13 7970   3.639   2.501   6.349
  143DIO     O2 7971   3.638   2.380   6.314
  143DIO    C14 7972   3.510   2.569   6.333
  143DIO    C15 7973   3.444   2.637   6.446
  143DIO     F5 7974   3.506   2.647   6.566
  143DIO    C16 7975   3.313   2.699   6.435
  143DIO    C17 7976   3.237   2.689   6.310
  143DIO    C18 7977   3.306   2.637   6.193
  143DIO    C19 7978   3.437   2.576   6.205
  143DIO     F6 7979   3.500   2.543   6.089
  143DIO    C20 7980   3.096   2.743   6.300
  143DIO     O3 7981   3.027   2.747   6.425
  143DIO    C21 7982   2.983   2.618   6.468
  143DIO    C22 7983   2.894   2.553   6.362
  143DIO    C23 7984   2.975   2.550   6.233
  143DIO     O4 7985   3.019   2.680   6.197
  143DIO    C24 7986   2.761   2.629   6.340
  143DIO    C25 7987   2.671   2.643   6.462
  143DIO    C26 7988   2.632   2.510   6.526
  143DIO     H1 7989   4.353   2.626   6.249
  143DIO     H2 7990   4.311   2.371   6.609
  143DIO     H3 7991   4.135   2.591   6.636
  143DIO     H4 7992   3.883   2.618   6.624
  143DIO     H5 7993   3.884   2.483   6.208
  143DIO     H6 7994   3.275   2.756   6.519
  143DIO     H7 7995   3.263   2.647   6.094
  143DIO     H8 7996   3.106   2.848   6.269
  143DIO     H9 7997   3.070   2.555   6.489
  143DIO    H10 7998   2.930   2.631   6.563
  143DIO    H11 7999   2.872   2.450   6.392
  143DIO    H12 8000   2.914   2.511   6.150
  143DIO    H13 8001   3.061   2.482   6.242
  143DIO    H14 8002   2.781   2.729   6.301
  143DIO    H15 8003   2.705   2.576   6.261
  143DIO    H16 8004   2.718   2.707   6.537
  143DIO    H17 8005   2.579   2.694   6.431
  143DIO    H18 8006   2.588   2.442   6.452
  143DIO    H19 8007   2.719   2.461   6.571
  143DIO    H20 8008   2.559   2.527   6.605
  144DIO     F1 8009   4.702   3.919   7.220
  144DIO     C1 8010   4.624   3.817   7.261
  144DIO     C2 8011   4.480   3.833   7.263
  144DIO     C3 8012   4.391   3.724   7.310
  144DIO     C4 8013   4.457   3.598   7.351
  144DIO     C5 8014   4.601   3.584   7.347
  144DIO     F2 8015   4.657   3.466   7.381
  144DIO     C6 8016   4.685   3.692   7.302
  144DIO     F3 8017   4.819   3.678   7.300
  144DIO     C7 8018   4.245   3.740   7.314
  144DIO     C8 8019   4.168   3.706   7.436
  144DIO     C9 8020   4.023   3.721   7.440
  144DIO    C10 8021   3.951   3.760   7.321
  144DIO    C11 8022   4.023   3.801   7.202
  144DIO    C12 8023   4.167   3.788   7.198
  144DIO     F4 8024   4.232   3.822   7.085
  144DIO     O1 8025   3.818   3.795   7.338
  144DIO    C13 8026   3.724   3.768   7.239
  144DIO     O2 8027   3.723   3.689   7.141
  144DIO    C14 8028   3.595   3.832   7.266
  144DIO    C15 8029   3.529   3.823   7.398
  144DIO     F5 8030   3.591   3.762   7.501
  144DIO    C16 8031   3.398   3.880   7.424
  144DIO    C17 8032   3.322   3.944   7.317
  144DIO    C18 8033   3.391   3.969   7.191
  144DIO    C19 8034   3.522   3.913   7.165
  144DIO     F6 8035   3.585   3.953   7.052
  144DIO    C20 8036   3.181   3.994   7.339
  144DIO     O3 8037   3.112   3.924   7.444
  144DIO    C21 8038   3.068   3.795   7.404
  144DIO    C22 8039   2.979   3.803   7.281
  144DIO    C23 8040   3.060   3.875   7.173
  144DIO     O4 8041   3.104   4.002   7.219
  144DIO    C24 8042   2.846   3.877   7.306
  144DIO    C25 8043   2.756   3.818   7.414
  144DIO    C26 8044   2.717   3.673   7.389
  144DIO     H1 8045   4.438   3.927   7.230
  144DIO     H2 8046   4.396   3.512   7.376
  144DIO     H3 8047   4.219   3.675   7.526
  144DIO     H4 8048   3.968   3.704   7.532
  144DIO     H5 8049   3.969   3.834   7.114
  144DIO     H6 8050   3.360   3.877   7.525
  144DIO     H7 8051   3.348   4.035   7.116
  144DIO     H8 8052   3.191   4.097   7.375
  144DIO     H9 8053   3.155   3.731   7.385
  144DIO    H10 8054   3.015   3.750   7.489
  144DIO    H11 8055   2.956   3.701   7.246
  144DIO    H12 8056   2.999   3.892   7.083
  144DIO    H13 8057   3.146   3.815   7.141
  144DIO    H14 8058   2.866   3.982   7.332
  144DIO    H15 8059   2.790   3.880   7.212
  144DIO    H16 8060   2.803   3.827   7.512
  144DIO    H17 8061   2.664   3.878   7.419
  144DIO    H18 8062   2.673   3.660   7.290
  144DIO    H19 8063   2.804   3.606   7.398
  144DIO    H20 8064   2.643   3.640   7.463
  145DIO     F1 8065   4.966   5.010   5.315
  145DIO     C1 8066   4.888   5.079   5.229
  145DIO     C2 8067   4.744   5.063   5.235
  145DIO     C3 8068   4.655   5.136   5.142
  145DIO     C4 8069   4.721   5.227   5.045
  145DIO     C5 8070   4.865   5.241   5.041
  145DIO     F2 8071   4.921   5.327   4.954
  145DIO     C6 8072   4.949   5.168   5.133
  145DIO     F3 8073   5.083   5.181   5.128
  145DIO     C7 8074   4.509   5.120   5.145
  145DIO     C8 8075   4.432   5.091   5.023
  145DIO     C9 8076   4.287   5.076   5.026
  145DIO    C10 8077   4.215   5.100   5.149
  145DIO    C11 8078   4.287   5.122   5.273
  145DIO    C12 8079   4.431   5.134   5.270
  145DIO     F4 8080   4.496   5.160   5.385
  145DIO     O1 8081   4.082   5.061   5.151
  145DIO    C13 8082   3.988   5.132   5.224
  145DIO     O2 8083   3.987   5.249   5.272
  145DIO    C14 8084   3.859   5.063   5.232
  145DIO    C15 8085   3.793   5.007   5.112
  145DIO     F5 8086   3.855   5.010   4.993
  145DIO    C16 8087   3.662   4.945   5.117
  145DIO    C17 8088   3.586   4.941   5.242
  145DIO    C18 8089   3.655   4.980   5.364
  145DIO    C19 8090   3.786   5.041   5.359
  145DIO     F6 8091   3.849   5.061   5.477
  145DIO    C20 8092   3.445   4.886   5.246
  145DIO     O3 8093   3.376   4.896   5.121
  145DIO    C21 8094   3.332   5.028   5.093
  145DIO    C22 8095   3.243   5.082   5.205
  145DIO    C23 8096   3.324   5.071   5.334
  145DIO     O4 8097   3.368   4.937   5.355
  145DIO    C24 8098   3.110   5.004   5.219
  145DIO    C25 8099   3.020   5.004   5.096
  145DIO    C26 8100   2.981   5.143   5.047
  145DIO     H1 8101   4.702   4.997   5.309
  145DIO     H2 8102   4.660   5.290   4.980
  145DIO     H3 8103   4.483   5.074   4.929
  145DIO     H4 8104   4.232   5.046   4.938
  145DIO     H5 8105   4.233   5.134   5.366
  145DIO     H6 8106   3.624   4.898   5.027
  145DIO     H7 8107   3.612   4.958   5.461
  145DIO     H8 8108   3.455   4.779   5.265
  145DIO     H9 8109   3.419   5.094   5.079
  145DIO    H10 8110   3.279   5.027   4.998
  145DIO    H11 8111   3.220   5.187   5.187
  145DIO    H12 8112   3.263   5.100   5.421
  145DIO    H13 8113   3.410   5.139   5.333
  145DIO    H14 8114   3.130   4.900   5.247
  145DIO    H15 8115   3.054   5.047   5.303
  145DIO    H16 8116   3.067   4.948   5.014
  145DIO    H17 8117   2.928   4.949   5.121
  145DIO    H18 8118   2.937   5.202   5.128
  145DIO    H19 8119   3.068   5.196   5.008
  145DIO    H20 8120   2.907   5.135   4.967
  146DIO     F1 8121   2.802   3.514   3.284
  146DIO     C1 8122   2.724   3.587   3.202
  146DIO     C2 8123   2.580   3.571   3.207
  146DIO     C3 8124   2.492   3.648   3.118
  146DIO     C4 8125   2.557   3.744   3.025
  146DIO     C5 8126   2.701   3.758   3.022
  146DIO     F2 8127   2.757   3.849   2.939
  146DIO     C6 8128   2.785   3.681   3.110
  146DIO     F3 8129   2.919   3.694   3.106
  146DIO     C7 8130   2.345   3.633   3.120
  146DIO     C8 8131   2.268   3.609   2.996
  146DIO     C9 8132   2.123   3.594   2.999
  146DIO    C10 8133   2.051   3.612   3.123
  146DIO    C11 8134   2.123   3.628   3.248
  146DIO    C12 8135   2.267   3.640   3.246
  146DIO     F4 8136   2.332   3.660   3.362
  146DIO     O1 8137   1.919   3.573   3.123
  146DIO    C13 8138   1.824   3.641   3.200
  146DIO     O2 8139   1.823   3.754   3.253
  146DIO    C14 8140   1.695   3.571   3.204
  146DIO    C15 8141   1.629   3.521   3.082
  146DIO     F5 8142   1.691   3.531   2.962
  146DIO    C16 8143   1.498   3.458   3.083
  146DIO    C17 8144   1.422   3.448   3.208
  146DIO    C18 8145   1.491   3.481   3.332
  146DIO    C19 8146   1.622   3.542   3.330
  146DIO     F6 8147   1.685   3.557   3.449
  146DIO    C20 8148   1.281   3.394   3.209
  146DIO     O3 8149   1.212   3.410   3.085
  146DIO    C21 8150   1.168   3.543   3.064
  146DIO    C22 8151   1.079   3.591   3.178
  146DIO    C23 8152   1.160   3.574   3.307
  146DIO     O4 8153   1.204   3.439   3.321
  146DIO    C24 8154   0.946   3.513   3.188
  146DIO    C25 8155   0.856   3.519   3.065
  146DIO    C26 8156   0.817   3.660   3.024
  146DIO     H1 8157   2.538   3.501   3.278
  146DIO     H2 8158   2.496   3.810   2.964
  146DIO     H3 8159   2.320   3.598   2.902
  146DIO     H4 8160   2.068   3.569   2.910
  146DIO     H5 8161   2.069   3.635   3.341
  146DIO     H6 8162   1.460   3.416   2.991
  146DIO     H7 8163   1.448   3.455   3.428
  146DIO     H8 8164   1.291   3.285   3.223
  146DIO     H9 8165   1.255   3.609   3.052
  146DIO    H10 8166   1.115   3.546   2.968
  146DIO    H11 8167   1.057   3.697   3.165
  146DIO    H12 8168   1.099   3.598   3.394
  146DIO    H13 8169   1.246   3.641   3.308
  146DIO    H14 8170   0.966   3.407   3.211
  146DIO    H15 8171   0.890   3.552   3.274
  146DIO    H16 8172   0.903   3.467   2.981
  146DIO    H17 8173   0.764   3.462   3.087
  146DIO    H18 8174   0.773   3.715   3.107
  146DIO    H19 8175   0.904   3.716   2.987
  146DIO    H20 8176   0.744   3.656   2.943
  147DIO     F1 8177   2.607   6.764   0.213
  147DIO     C1 8178   2.529   6.657   0.241
  147DIO     C2 8179   2.385   6.674   0.246
  147DIO     C3 8180   2.296   6.560   0.278
  147DIO     C4 8181   2.362   6.429   0.303
  147DIO     C5 8182   2.506   6.415   0.298
  147DIO     F2 8183   2.561   6.294   0.317
  147DIO     C6 8184   2.590   6.529   0.266
  147DIO     F3 8185   2.723   6.515   0.263
  147DIO     C7 8186   2.150   6.574   0.284
  147DIO     C8 8187   2.073   6.526   0.401
  147DIO     C9 8188   1.928   6.540   0.407
  147DIO    C10 8189   1.855   6.593   0.293
  147DIO    C11 8190   1.928   6.649   0.180
  147DIO    C12 8191   2.072   6.637   0.176
  147DIO     F4 8192   2.137   6.684   0.067
  147DIO     O1 8193   1.723   6.626   0.315
  147DIO    C13 8194   1.629   6.611   0.214
  147DIO     O2 8195   1.628   6.546   0.106
  147DIO    C14 8196   1.499   6.672   0.248
  147DIO    C15 8197   1.433   6.646   0.378
  147DIO     F5 8198   1.496   6.573   0.473
  147DIO    C16 8199   1.302   6.699   0.411
  147DIO    C17 8200   1.227   6.776   0.313
  147DIO    C18 8201   1.295   6.817   0.191
  147DIO    C19 8202   1.427   6.765   0.159
  147DIO     F6 8203   1.489   6.818   0.052
  147DIO    C20 8204   1.086   6.823   0.341
  147DIO     O3 8205   1.016   6.741   0.436
  147DIO    C21 8206   0.972   6.618   0.381
  147DIO    C22 8207   0.884   6.641   0.259
  147DIO    C23 8208   0.964   6.726   0.161
  147DIO     O4 8209   1.009   6.846   0.223
  147DIO    C24 8210   0.751   6.712   0.294
  147DIO    C25 8211   0.660   6.639   0.393
  147DIO    C26 8212   0.622   6.498   0.351
  147DIO     H1 8213   2.342   6.771   0.225
  147DIO     H2 8214   2.301   6.340   0.317
  147DIO     H3 8215   2.124   6.484   0.486
  147DIO     H4 8216   1.873   6.512   0.496
  147DIO     H5 8217   1.873   6.693   0.098
  147DIO     H6 8218   1.264   6.684   0.511
  147DIO     H7 8219   1.252   6.892   0.125
  147DIO     H8 8220   1.096   6.921   0.390
  147DIO     H9 8221   1.059   6.556   0.354
  147DIO    H10 8222   0.920   6.563   0.459
  147DIO    H11 8223   0.861   6.545   0.212
  147DIO    H12 8224   0.903   6.754   0.075
  147DIO    H13 8225   1.050   6.670   0.123
  147DIO    H14 8226   0.771   6.812   0.333
  147DIO    H15 8227   0.694   6.726   0.201
  147DIO    H16 8228   0.707   6.636   0.492
  147DIO    H17 8229   0.568   6.698   0.406
  147DIO    H18 8230   0.578   6.498   0.250
  147DIO    H19 8231   0.708   6.432   0.351
  147DIO    H20 8232   0.548   6.457   0.420
  148DIO     F1 8233   9.271   0.961   5.502
  148DIO     C1 8234   9.194   0.852   5.498
  148DIO     C2 8235   9.050   0.866   5.507
  148DIO     C3 8236   8.961   0.747   5.505
  148DIO     C4 8237   9.026   0.615   5.490
  148DIO     C5 8238   9.171   0.604   5.481
  148DIO     F2 8239   9.226   0.482   5.464
  148DIO     C6 8240   9.254   0.721   5.484
  148DIO     F3 8241   9.388   0.709   5.477
  148DIO     C7 8242   8.814   0.760   5.515
  148DIO     C8 8243   8.737   0.679   5.612
  148DIO     C9 8244   8.593   0.690   5.622
  148DIO    C10 8245   8.520   0.775   5.529
  148DIO    C11 8246   8.593   0.861   5.437
  148DIO    C12 8247   8.737   0.851   5.429
  148DIO     F4 8248   8.802   0.929   5.340
  148DIO     O1 8249   8.388   0.800   5.559
  148DIO    C13 8250   8.293   0.816   5.458
  148DIO     O2 8251   8.292   0.784   5.336
  148DIO    C14 8252   8.164   0.863   5.509
  148DIO    C15 8253   8.098   0.801   5.625
  148DIO     F5 8254   8.161   0.703   5.694
  148DIO    C16 8255   7.967   0.842   5.673
  148DIO    C17 8256   7.891   0.944   5.601
  148DIO    C18 8257   7.960   1.019   5.497
  148DIO    C19 8258   8.092   0.979   5.451
  148DIO     F6 8259   8.154   1.061   5.364
  148DIO    C20 8260   7.751   0.980   5.642
  148DIO     O3 8261   7.681   0.875   5.709
  148DIO    C21 8262   7.637   0.773   5.620
  148DIO    C22 8263   7.548   0.831   5.510
  148DIO    C23 8264   7.629   0.941   5.442
  148DIO     O4 8265   7.673   1.038   5.536
  148DIO    C24 8266   7.416   0.888   5.564
  148DIO    C25 8267   7.325   0.790   5.638
  148DIO    C26 8268   7.286   0.668   5.556
  148DIO     H1 8269   9.007   0.965   5.516
  148DIO     H2 8270   8.966   0.526   5.478
  148DIO     H3 8271   8.789   0.613   5.681
  148DIO     H4 8272   8.538   0.638   5.699
  148DIO     H5 8273   8.538   0.928   5.372
  148DIO     H6 8274   7.929   0.798   5.764
  148DIO     H7 8275   7.917   1.110   5.456
  148DIO     H8 8276   7.760   1.060   5.717
  148DIO     H9 8277   7.724   0.722   5.576
  148DIO    H10 8278   7.584   0.697   5.678
  148DIO    H11 8279   7.526   0.753   5.437
  148DIO    H12 8280   7.568   0.993   5.367
  148DIO    H13 8281   7.715   0.899   5.388
  148DIO    H14 8282   7.435   0.973   5.631
  148DIO    H15 8283   7.359   0.930   5.479
  148DIO    H16 8284   7.372   0.757   5.732
  148DIO    H17 8285   7.233   0.842   5.667
  148DIO    H18 8286   7.243   0.697   5.460
  148DIO    H19 8287   7.373   0.604   5.536
  148DIO    H20 8288   7.213   0.608   5.610
  149DIO     F1 8289   6.115   5.301   7.697
  149DIO     C1 8290   6.037   5.378   7.776
  149DIO     C2 8291   5.893   5.374   7.759
  149DIO     C3 8292   5.805   5.458   7.842
  149DIO     C4 8293   5.870   5.544   7.944
  149DIO     C5 8294   6.014   5.546   7.958
  149DIO     F2 8295   6.070   5.623   8.054
  149DIO     C6 8296   6.098   5.463   7.875
  149DIO     F3 8297   6.232   5.467   7.889
  149DIO     C7 8298   5.658   5.456   7.826
  149DIO     C8 8299   5.581   5.582   7.811
  149DIO     C9 8300   5.436   5.580   7.796
  149DIO    C10 8301   5.364   5.455   7.806
  149DIO    C11 8302   5.436   5.329   7.813
  149DIO    C12 8303   5.580   5.331   7.825
  149DIO     F4 8304   5.645   5.213   7.837
  149DIO     O1 8305   5.232   5.458   7.767
  149DIO    C13 8306   5.137   5.377   7.829
  149DIO     O2 8307   5.136   5.316   7.939
  149DIO    C14 8308   5.008   5.377   7.759
  149DIO    C15 8309   4.942   5.502   7.718
  149DIO     F5 8310   5.004   5.621   7.735
  149DIO    C16 8311   4.811   5.505   7.655
  149DIO    C17 8312   4.735   5.382   7.637
  149DIO    C18 8313   4.804   5.255   7.661
  149DIO    C19 8314   4.935   5.253   7.722
  149DIO     F6 8315   4.998   5.133   7.729
  149DIO    C20 8316   4.594   5.384   7.582
  149DIO     O3 8317   4.525   5.506   7.606
  149DIO    C21 8318   4.481   5.519   7.741
  149DIO    C22 8319   4.392   5.401   7.781
  149DIO    C23 8320   4.473   5.274   7.755
  149DIO     O4 8321   4.517   5.269   7.620
  149DIO    C24 8322   4.259   5.397   7.702
  149DIO    C25 8323   4.169   5.519   7.716
  149DIO    C26 8324   4.130   5.551   7.860
  149DIO     H1 8325   5.851   5.308   7.684
  149DIO     H2 8326   5.809   5.600   8.014
  149DIO     H3 8327   5.633   5.677   7.806
  149DIO     H4 8328   5.381   5.671   7.777
  149DIO     H5 8329   5.382   5.236   7.814
  149DIO     H6 8330   4.773   5.600   7.619
  149DIO     H7 8331   4.761   5.161   7.629
  149DIO     H8 8332   4.604   5.377   7.473
  149DIO     H9 8333   4.568   5.526   7.808
  149DIO    H10 8334   4.428   5.614   7.751
  149DIO    H11 8335   4.370   5.407   7.888
  149DIO    H12 8336   4.412   5.185   7.773
  149DIO    H13 8337   4.559   5.268   7.823
  149DIO    H14 8338   4.279   5.381   7.595
  149DIO    H15 8339   4.203   5.308   7.735
  149DIO    H16 8340   4.216   5.607   7.671
  149DIO    H17 8341   4.077   5.501   7.659
  149DIO    H18 8342   4.086   5.464   7.909
  149DIO    H19 8343   4.217   5.584   7.918
  149DIO    H20 8344   4.057   5.632   7.862
  150DIO     F1 8345   3.216   3.661   1.553
  150DIO     C1 8346   3.139   3.572   1.488
  150DIO     C2 8347   2.995   3.579   1.504
  150DIO     C3 8348   2.906   3.482   1.436
  150DIO     C4 8349   2.971   3.381   1.350
  150DIO     C5 8350   3.116   3.376   1.336
  150DIO     F2 8351   3.171   3.285   1.253
  150DIO     C6 8352   3.199   3.472   1.404
  150DIO     F3 8353   3.333   3.466   1.391
  150DIO     C7 8354   2.759   3.486   1.451
  150DIO     C8 8355   2.682   3.365   1.486
  150DIO     C9 8356   2.538   3.369   1.501
  150DIO    C10 8357   2.465   3.491   1.471
  150DIO    C11 8358   2.537   3.614   1.443
  150DIO    C12 8359   2.682   3.610   1.431
  150DIO     F4 8360   2.746   3.724   1.400
  150DIO     O1 8361   2.333   3.495   1.510
  150DIO    C13 8362   2.238   3.564   1.435
  150DIO     O2 8363   2.237   3.607   1.317
  150DIO    C14 8364   2.109   3.576   1.504
  150DIO    C15 8365   2.043   3.459   1.565
  150DIO     F5 8366   2.105   3.339   1.568
  150DIO    C16 8367   1.912   3.466   1.628
  150DIO    C17 8368   1.836   3.591   1.626
  150DIO    C18 8369   1.905   3.712   1.581
  150DIO    C19 8370   2.037   3.704   1.520
  150DIO     F6 8371   2.099   3.821   1.495
  150DIO    C20 8372   1.696   3.598   1.680
  150DIO     O3 8373   1.626   3.473   1.676
  150DIO    C21 8374   1.582   3.439   1.545
  150DIO    C22 8375   1.493   3.548   1.487
  150DIO    C23 8376   1.574   3.678   1.491
  150DIO     O4 8377   1.618   3.705   1.624
  150DIO    C24 8378   1.360   3.566   1.564
  150DIO    C25 8379   1.270   3.442   1.570
  150DIO    C26 8380   1.231   3.387   1.433
  150DIO     H1 8381   2.952   3.656   1.567
  150DIO     H2 8382   2.911   3.313   1.289
  150DIO     H3 8383   2.734   3.272   1.507
  150DIO     H4 8384   2.482   3.283   1.535
  150DIO     H5 8385   2.483   3.706   1.427
  150DIO     H6 8386   1.874   3.379   1.679
  150DIO     H7 8387   1.862   3.810   1.598
  150DIO     H8 8388   1.705   3.622   1.787
  150DIO     H9 8389   1.669   3.421   1.481
  150DIO    H10 8390   1.529   3.343   1.551
  150DIO    H11 8391   1.471   3.524   1.382
  150DIO    H12 8392   1.513   3.762   1.459
  150DIO    H13 8393   1.660   3.672   1.424
  150DIO    H14 8394   1.380   3.598   1.667
  150DIO    H15 8395   1.304   3.647   1.517
  150DIO    H16 8396   1.317   3.363   1.629
  150DIO    H17 8397   1.178   3.470   1.623
  150DIO    H18 8398   1.187   3.465   1.370
  150DIO    H19 8399   1.318   3.345   1.381
  150DIO    H20 8400   1.158   3.307   1.445
  151DIO     F1 8401   8.676   5.610   0.207
  151DIO     C1 8402   8.598   5.501   0.223
  151DIO     C2 8403   8.454   5.517   0.230
  151DIO     C3 8404   8.365   5.400   0.250
  151DIO     C4 8405   8.431   5.268   0.261
  151DIO     C5 8406   8.575   5.255   0.254
  151DIO     F2 8407   8.630   5.132   0.261
  151DIO     C6 8408   8.659   5.371   0.235
  151DIO     F3 8409   8.793   5.358   0.230
  151DIO     C7 8410   8.219   5.414   0.258
  151DIO     C8 8411   8.142   5.354   0.369
  151DIO     C9 8412   7.997   5.367   0.376
  151DIO    C10 8413   7.924   5.432   0.269
  151DIO    C11 8414   7.997   5.499   0.162
  151DIO    C12 8415   8.141   5.488   0.156
  151DIO     F4 8416   8.206   5.547   0.053
  151DIO     O1 8417   7.792   5.462   0.294
  151DIO    C13 8418   7.698   5.458   0.191
  151DIO     O2 8419   7.697   5.404   0.078
  151DIO    C14 8420   7.569   5.515   0.232
  151DIO    C15 8421   7.502   5.476   0.358
  151DIO     F5 8422   7.565   5.393   0.445
  151DIO    C16 8423   7.372   5.526   0.397
  151DIO    C17 8424   7.296   5.612   0.307
  151DIO    C18 8425   7.365   5.666   0.190
  151DIO    C19 8426   7.496   5.617   0.153
  151DIO     F6 8427   7.559   5.681   0.052
  151DIO    C20 8428   7.155   5.656   0.340
  151DIO     O3 8429   7.085   5.565   0.426
  151DIO    C21 8430   7.042   5.447   0.358
  151DIO    C22 8431   6.953   5.483   0.239
  151DIO    C23 8432   7.034   5.578   0.151
  151DIO     O4 8433   7.078   5.691   0.225
  151DIO    C24 8434   6.820   5.550   0.281
  151DIO    C25 8435   6.729   5.468   0.373
  151DIO    C26 8436   6.691   5.332   0.316
  151DIO     H1 8437   8.411   5.616   0.219
  151DIO     H2 8438   8.370   5.178   0.266
  151DIO     H3 8439   8.193   5.303   0.449
  151DIO     H4 8440   7.942   5.330   0.462
  151DIO     H5 8441   7.943   5.552   0.085
  151DIO     H6 8442   7.333   5.500   0.495
  151DIO     H7 8443   7.322   5.747   0.132
  151DIO     H8 8444   7.165   5.748   0.399
  151DIO     H9 8445   7.128   5.389   0.325
  151DIO    H10 8446   6.989   5.385   0.430
  151DIO    H11 8447   6.930   5.393   0.182
  151DIO    H12 8448   6.972   5.615   0.068
  151DIO    H13 8449   7.120   5.527   0.107
  151DIO    H14 8450   6.840   5.646   0.331
  151DIO    H15 8451   6.764   5.574   0.190
  151DIO    H16 8452   6.777   5.454   0.471
  151DIO    H17 8453   6.638   5.525   0.391
  151DIO    H18 8454   6.647   5.342   0.216
  151DIO    H19 8455   6.777   5.265   0.309
  151DIO    H20 8456   6.617   5.284   0.380
  152DIO     F1 8457   2.382   3.398   0.207
  152DIO     C1 8458   2.304   3.360   0.310
  152DIO     C2 8459   2.160   3.373   0.300
  152DIO     C3 8460   2.071   3.334   0.411
  152DIO     C4 8461   2.137   3.280   0.533
  152DIO     C5 8462   2.281   3.268   0.541
  152DIO     F2 8463   2.336   3.214   0.651
  152DIO     C6 8464   2.365   3.307   0.430
  152DIO     F3 8465   2.498   3.296   0.439
  152DIO     C7 8466   1.925   3.348   0.403
  152DIO     C8 8467   1.848   3.416   0.510
  152DIO     C9 8468   1.703   3.429   0.502
  152DIO    C10 8469   1.630   3.366   0.393
  152DIO    C11 8470   1.703   3.305   0.282
  152DIO    C12 8471   1.847   3.295   0.289
  152DIO     F4 8472   1.912   3.233   0.188
  152DIO     O1 8473   1.498   3.403   0.379
  152DIO    C13 8474   1.404   3.311   0.332
  152DIO     O2 8475   1.403   3.186   0.325
  152DIO    C14 8476   1.275   3.374   0.302
  152DIO    C15 8477   1.208   3.466   0.398
  152DIO     F5 8478   1.271   3.501   0.512
  152DIO    C16 8479   1.077   3.523   0.373
  152DIO    C17 8480   1.002   3.487   0.254
  152DIO    C18 8481   1.070   3.411   0.150
  152DIO    C19 8482   1.202   3.354   0.175
  152DIO     F6 8483   1.265   3.297   0.070
  152DIO    C20 8484   0.861   3.537   0.232
  152DIO     O3 8485   0.791   3.568   0.353
  152DIO    C21 8486   0.748   3.452   0.423
  152DIO    C22 8487   0.659   3.365   0.334
  152DIO    C23 8488   0.739   3.334   0.208
  152DIO     O4 8489   0.784   3.454   0.145
  152DIO    C24 8490   0.526   3.434   0.296
  152DIO    C25 8491   0.435   3.474   0.412
  152DIO    C26 8492   0.397   3.359   0.503
  152DIO     H1 8493   2.117   3.412   0.208
  152DIO     H2 8494   2.076   3.241   0.614
  152DIO     H3 8495   1.899   3.461   0.593
  152DIO     H4 8496   1.648   3.485   0.575
  152DIO     H5 8497   1.648   3.264   0.199
  152DIO     H6 8498   1.039   3.597   0.443
  152DIO     H7 8499   1.028   3.400   0.052
  152DIO     H8 8500   0.871   3.633   0.180
  152DIO     H9 8501   0.834   3.395   0.458
  152DIO    H10 8502   0.695   3.484   0.513
  152DIO    H11 8503   0.636   3.271   0.385
  152DIO    H12 8504   0.678   3.279   0.136
  152DIO    H13 8505   0.826   3.270   0.232
  152DIO    H14 8506   0.546   3.524   0.236
  152DIO    H15 8507   0.469   3.367   0.230
  152DIO    H16 8508   0.483   3.553   0.472
  152DIO    H17 8509   0.343   3.518   0.371
  152DIO    H18 8510   0.353   3.276   0.446
  152DIO    H19 8511   0.483   3.320   0.558
  152DIO    H20 8512   0.323   3.392   0.577
  153DIO     F1 8513   8.491   4.248   7.365
  153DIO     C1 8514   8.413   4.309   7.456
  153DIO     C2 8515   8.269   4.308   7.439
  153DIO     C3 8516   8.180   4.376   7.537
  153DIO     C4 8517   8.246   4.442   7.652
  153DIO     C5 8518   8.390   4.441   7.667
  153DIO     F2 8519   8.446   4.499   7.775
  153DIO     C6 8520   8.474   4.375   7.570
  153DIO     F3 8521   8.608   4.376   7.584
  153DIO     C7 8522   8.034   4.377   7.521
  153DIO     C8 8523   7.957   4.503   7.529
  153DIO     C9 8524   7.812   4.504   7.514
  153DIO    C10 8525   7.740   4.380   7.500
  153DIO    C11 8526   7.812   4.255   7.484
  153DIO    C12 8527   7.956   4.254   7.497
  153DIO     F4 8528   8.021   4.136   7.487
  153DIO     O1 8529   7.607   4.390   7.462
  153DIO    C13 8530   7.513   4.299   7.509
  153DIO     O2 8531   7.512   4.218   7.606
  153DIO    C14 8532   7.384   4.311   7.440
  153DIO    C15 8533   7.317   4.442   7.423
  153DIO     F5 8534   7.380   4.556   7.461
  153DIO    C16 8535   7.187   4.456   7.361
  153DIO    C17 8536   7.111   4.339   7.321
  153DIO    C18 8537   7.180   4.210   7.321
  153DIO    C19 8538   7.311   4.197   7.381
  153DIO     F6 8539   7.374   4.078   7.365
  153DIO    C20 8540   6.970   4.351   7.267
  153DIO     O3 8541   6.900   4.467   7.314
  153DIO    C21 8542   6.857   4.454   7.448
  153DIO    C22 8543   6.768   4.332   7.466
  153DIO    C23 8544   6.849   4.211   7.417
  153DIO     O4 8545   6.893   4.231   7.283
  153DIO    C24 8546   6.635   4.341   7.388
  153DIO    C25 8547   6.544   4.459   7.424
  153DIO    C26 8548   6.506   4.464   7.571
  153DIO     H1 8549   8.227   4.257   7.354
  153DIO     H2 8550   8.185   4.484   7.731
  153DIO     H3 8551   8.008   4.598   7.541
  153DIO     H4 8552   7.757   4.597   7.511
  153DIO     H5 8553   7.758   4.163   7.468
  153DIO     H6 8554   7.149   4.556   7.343
  153DIO     H7 8555   7.137   4.124   7.272
  153DIO     H8 8556   6.980   4.364   7.159
  153DIO     H9 8557   6.943   4.449   7.515
  153DIO    H10 8558   6.804   4.546   7.475
  153DIO    H11 8559   6.745   4.318   7.572
  153DIO    H12 8560   6.788   4.121   7.419
  153DIO    H13 8561   6.935   4.193   7.483
  153DIO    H14 8562   6.655   4.346   7.280
  153DIO    H15 8563   6.579   4.249   7.404
  153DIO    H16 8564   6.592   4.554   7.395
  153DIO    H17 8565   6.453   4.452   7.364
  153DIO    H18 8566   6.462   4.370   7.604
  153DIO    H19 8567   6.593   4.486   7.634
  153DIO    H20 8568   6.432   4.544   7.588
  154DIO     F1 8569   2.131   7.445   5.569
  154DIO     C1 8570   2.054   7.464   5.460
  154DIO     C2 8571   1.909   7.453   5.473
  154DIO     C3 8572   1.821   7.471   5.356
  154DIO     C4 8573   1.886   7.504   5.227
  154DIO     C5 8574   2.030   7.514   5.217
  154DIO     F2 8575   2.086   7.548   5.099
  154DIO     C6 8576   2.114   7.495   5.333
  154DIO     F3 8577   2.248   7.504   5.322
  154DIO     C7 8578   1.674   7.459   5.367
  154DIO     C8 8579   1.597   7.374   5.274
  154DIO     C9 8580   1.452   7.363   5.284
  154DIO    C10 8581   1.380   7.443   5.380
  154DIO    C11 8582   1.452   7.523   5.478
  154DIO    C12 8583   1.596   7.532   5.470
  154DIO     F4 8584   1.661   7.610   5.558
  154DIO     O1 8585   1.248   7.410   5.401
  154DIO    C13 8586   1.153   7.508   5.430
  154DIO     O2 8587   1.152   7.633   5.416
  154DIO    C14 8588   1.024   7.451   5.471
  154DIO    C15 8589   0.958   7.344   5.393
  154DIO     F5 8590   1.020   7.289   5.287
  154DIO    C16 8591   0.827   7.292   5.427
  154DIO    C17 8592   0.751   7.349   5.538
  154DIO    C18 8593   0.820   7.442   5.627
  154DIO    C19 8594   0.952   7.494   5.593
  154DIO     F6 8595   1.014   7.568   5.686
  154DIO    C20 8596   0.610   7.303   5.569
  154DIO     O3 8597   0.541   7.252   5.455
  154DIO    C21 8598   0.497   7.354   5.366
  154DIO    C22 8599   0.408   7.455   5.438
  154DIO    C23 8600   0.489   7.508   5.556
  154DIO     O4 8601   0.533   7.401   5.640
  154DIO    C24 8602   0.275   7.393   5.488
  154DIO    C25 8603   0.185   7.333   5.380
  154DIO    C26 8604   0.146   7.431   5.270
  154DIO     H1 8605   1.867   7.431   5.570
  154DIO     H2 8606   1.826   7.528   5.141
  154DIO     H3 8607   1.649   7.314   5.200
  154DIO     H4 8608   1.397   7.294   5.222
  154DIO     H5 8609   1.398   7.578   5.553
  154DIO     H6 8610   0.789   7.207   5.371
  154DIO     H7 8611   0.777   7.471   5.722
  154DIO     H8 8612   0.620   7.218   5.637
  154DIO     H9 8613   0.584   7.404   5.322
  154DIO    H10 8614   0.444   7.306   5.283
  154DIO    H11 8615   0.386   7.538   5.371
  154DIO    H12 8616   0.428   7.575   5.618
  154DIO    H13 8617   0.575   7.566   5.522
  154DIO    H14 8618   0.295   7.315   5.563
  154DIO    H15 8619   0.219   7.472   5.540
  154DIO    H16 8620   0.232   7.245   5.336
  154DIO    H17 8621   0.093   7.297   5.429
  154DIO    H18 8622   0.102   7.522   5.312
  154DIO    H19 8623   0.233   7.459   5.210
  154DIO    H20 8624   0.073   7.386   5.204
  155DIO     F1 8625   5.621   4.967   0.704
  155DIO     C1 8626   5.543   5.073   0.674
  155DIO     C2 8627   5.399   5.057   0.670
  155DIO     C3 8628   5.310   5.170   0.635
  155DIO     C4 8629   5.376   5.300   0.608
  155DIO     C5 8630   5.520   5.314   0.613
  155DIO     F2 8631   5.576   5.435   0.592
  155DIO     C6 8632   5.604   5.201   0.647
  155DIO     F3 8633   5.738   5.215   0.650
  155DIO     C7 8634   5.164   5.155   0.629
  155DIO     C8 8635   5.087   5.201   0.512
  155DIO     C9 8636   4.942   5.187   0.506
  155DIO    C10 8637   4.870   5.136   0.621
  155DIO    C11 8638   4.942   5.083   0.735
  155DIO    C12 8639   5.086   5.094   0.739
  155DIO     F4 8640   5.151   5.049   0.849
  155DIO     O1 8641   4.737   5.103   0.600
  155DIO    C13 8642   4.643   5.119   0.701
  155DIO     O2 8643   4.642   5.187   0.807
  155DIO    C14 8644   4.514   5.058   0.668
  155DIO    C15 8645   4.448   5.082   0.537
  155DIO     F5 8646   4.510   5.153   0.441
  155DIO    C16 8647   4.317   5.028   0.505
  155DIO    C17 8648   4.241   4.953   0.605
  155DIO    C18 8649   4.310   4.914   0.728
  155DIO    C19 8650   4.441   4.967   0.759
  155DIO     F6 8651   4.504   4.915   0.867
  155DIO    C20 8652   4.100   4.905   0.577
  155DIO     O3 8653   4.031   4.985   0.481
  155DIO    C21 8654   3.987   5.110   0.534
  155DIO    C22 8655   3.898   5.089   0.656
  155DIO    C23 8656   3.979   5.006   0.756
  155DIO     O4 8657   4.023   4.884   0.696
  155DIO    C24 8658   3.765   5.017   0.623
  155DIO    C25 8659   3.675   5.088   0.522
  155DIO    C26 8660   3.636   5.230   0.562
  155DIO     H1 8661   5.357   4.959   0.693
  155DIO     H2 8662   5.315   5.388   0.592
  155DIO     H3 8663   5.138   5.242   0.426
  155DIO     H4 8664   4.887   5.213   0.417
  155DIO     H5 8665   4.888   5.040   0.818
  155DIO     H6 8666   4.279   5.041   0.405
  155DIO     H7 8667   4.267   4.841   0.795
  155DIO     H8 8668   4.110   4.807   0.531
  155DIO     H9 8669   4.074   5.172   0.560
  155DIO    H10 8670   3.934   5.163   0.455
  155DIO    H11 8671   3.875   5.186   0.702
  155DIO    H12 8672   3.918   4.979   0.843
  155DIO    H13 8673   4.065   5.062   0.793
  155DIO    H14 8674   3.785   4.916   0.585
  155DIO    H15 8675   3.709   5.004   0.716
  155DIO    H16 8676   3.722   5.090   0.423
  155DIO    H17 8677   3.583   5.029   0.511
  155DIO    H18 8678   3.592   5.232   0.662
  155DIO    H19 8679   3.723   5.297   0.561
  155DIO    H20 8680   3.562   5.270   0.492
  156DIO     F1 8681   4.866   4.673   8.566
  156DIO     C1 8682   4.789   4.608   8.476
  156DIO     C2 8683   4.645   4.610   8.493
  156DIO     C3 8684   4.556   4.538   8.399
  156DIO     C4 8685   4.621   4.468   8.286
  156DIO     C5 8686   4.766   4.468   8.272
  156DIO     F2 8687   4.821   4.406   8.166
  156DIO     C6 8688   4.849   4.538   8.366
  156DIO     F3 8689   4.983   4.536   8.352
  156DIO     C7 8690   4.409   4.538   8.415
  156DIO     C8 8691   4.332   4.412   8.412
  156DIO     C9 8692   4.188   4.411   8.427
  156DIO    C10 8693   4.115   4.536   8.436
  156DIO    C11 8694   4.188   4.662   8.446
  156DIO    C12 8695   4.332   4.662   8.434
  156DIO     F4 8696   4.397   4.780   8.439
  156DIO     O1 8697   3.983   4.528   8.474
  156DIO    C13 8698   3.888   4.617   8.424
  156DIO     O2 8699   3.887   4.693   8.324
  156DIO    C14 8700   3.759   4.607   8.493
  156DIO    C15 8701   3.693   4.477   8.516
  156DIO     F5 8702   3.756   4.362   8.482
  156DIO    C16 8703   3.562   4.465   8.578
  156DIO    C17 8704   3.486   4.585   8.613
  156DIO    C18 8705   3.555   4.713   8.607
  156DIO    C19 8706   3.687   4.724   8.547
  156DIO     F6 8707   3.749   4.844   8.558
  156DIO    C20 8708   3.346   4.575   8.667
  156DIO     O3 8709   3.276   4.457   8.626
  156DIO    C21 8710   3.232   4.464   8.490
  156DIO    C22 8711   3.143   4.586   8.468
  156DIO    C23 8712   3.224   4.708   8.512
  156DIO     O4 8713   3.268   4.694   8.646
  156DIO    C24 8714   3.011   4.579   8.546
  156DIO    C25 8715   2.920   4.460   8.515
  156DIO    C26 8716   2.881   4.449   8.368
  156DIO     H1 8717   4.602   4.665   8.577
  156DIO     H2 8718   4.561   4.422   8.209
  156DIO     H3 8719   4.384   4.317   8.404
  156DIO     H4 8720   4.133   4.318   8.434
  156DIO     H5 8721   4.133   4.755   8.458
  156DIO     H6 8722   3.524   4.367   8.600
  156DIO     H7 8723   3.512   4.802   8.653
  156DIO     H8 8724   3.355   4.566   8.776
  156DIO     H9 8725   3.319   4.467   8.424
  156DIO    H10 8726   3.179   4.371   8.468
  156DIO    H11 8727   3.121   4.595   8.361
  156DIO    H12 8728   3.163   4.799   8.506
  156DIO    H13 8729   3.310   4.724   8.445
  156DIO    H14 8730   3.030   4.579   8.654
  156DIO    H15 8731   2.954   4.671   8.526
  156DIO    H16 8732   2.967   4.367   8.548
  156DIO    H17 8733   2.828   4.470   8.575
  156DIO    H18 8734   2.838   4.542   8.332
  156DIO    H19 8735   2.968   4.424   8.306
  156DIO    H20 8736   2.808   4.369   8.355
  157DIO     F1 8737   2.973   9.676   0.834
  157DIO     C1 8738   2.895   9.714   0.937
  157DIO     C2 8739   2.751   9.717   0.921
  157DIO     C3 8740   2.662   9.761   1.031
  157DIO     C4 8741   2.728   9.798   1.158
  157DIO     C5 8742   2.872   9.794   1.172
  157DIO     F2 8743   2.927   9.825   1.291
  157DIO     C6 8744   2.956   9.752   1.063
  157DIO     F3 8745   3.089   9.750   1.077
  157DIO     C7 8746   2.516   9.765   1.015
  157DIO     C8 8747   2.439   9.886   1.052
  157DIO     C9 8748   2.294   9.891   1.038
  157DIO    C10 8749   2.221   9.772   0.996
  157DIO    C11 8750   2.294   9.654   0.952
  157DIO    C12 8751   2.438   9.651   0.964
  157DIO     F4 8752   2.503   9.538   0.927
  157DIO     O1 8753   2.089   9.791   0.961
  157DIO    C13 8754   1.995   9.691   0.986
  157DIO     O2 8755   1.994   9.591   1.062
  157DIO    C14 8756   1.865   9.720   0.922
  157DIO    C15 8757   1.799   9.851   0.935
  157DIO     F5 8758   1.862   9.953   0.998
  157DIO    C16 8759   1.668   9.879   0.878
  157DIO    C17 8760   1.593   9.774   0.812
  157DIO    C18 8761   1.661   9.648   0.783
  157DIO    C19 8762   1.793   9.621   0.838
  157DIO     F6 8763   1.855   9.510   0.796
  157DIO    C20 8764   1.452   9.798   0.763
  157DIO     O3 8765   1.382   9.900   0.834
  157DIO    C21 8766   1.338   9.857   0.963
  157DIO    C22 8767   1.250   9.733   0.952
  157DIO    C23 8768   1.330   9.628   0.877
  157DIO     O4 8769   1.375   9.678   0.751
  157DIO    C24 8770   1.117   9.761   0.878
  157DIO    C25 8771   1.026   9.867   0.940
  157DIO    C26 8772   0.988   9.839   1.084
  157DIO     H1 8773   2.708   9.687   0.826
  157DIO     H2 8774   2.667   9.821   1.245
  157DIO     H3 8775   2.490   9.975   1.086
  157DIO     H4 8776   2.239   9.982   1.057
  157DIO     H5 8777   2.239   9.568   0.915
  157DIO     H6 8778   1.630   9.980   0.884
  157DIO     H7 8779   1.618   9.575   0.715
  157DIO     H8 8780   1.462   9.836   0.660
  157DIO     H9 8781   1.425   9.836   1.026
  157DIO    H10 8782   1.286   9.940   1.010
  157DIO    H11 8783   1.227   9.696   1.052
  157DIO    H12 8784   1.269   9.539   0.858
  157DIO    H13 8785   1.416   9.595   0.936
  157DIO    H14 8786   1.137   9.790   0.774
  157DIO    H15 8787   1.060   9.667   0.872
  157DIO    H16 8788   1.073   9.966   0.934
  157DIO    H17 8789   0.934   9.874   0.880
  157DIO    H18 8790   0.944   9.739   1.095
  157DIO    H19 8791   1.074   9.845   1.151
  157DIO    H20 8792   0.914   9.912   1.119
  158DIO     F1 8793   7.933   9.747   6.575
  158DIO     C1 8794   7.855   9.727   6.683
  158DIO     C2 8795   7.711   9.738   6.670
  158DIO     C3 8796   7.622   9.718   6.787
  158DIO     C4 8797   7.688   9.684   6.915
  158DIO     C5 8798   7.832   9.673   6.926
  158DIO     F2 8799   7.888   9.638   7.043
  158DIO     C6 8800   7.916   9.694   6.810
  158DIO     F3 8801   8.050   9.685   6.821
  158DIO     C7 8802   7.476   9.730   6.776
  158DIO     C8 8803   7.399   9.814   6.871
  158DIO     C9 8804   7.254   9.826   6.861
  158DIO    C10 8805   7.182   9.746   6.763
  158DIO    C11 8806   7.254   9.668   6.664
  158DIO    C12 8807   7.398   9.659   6.673
  158DIO     F4 8808   7.463   9.582   6.583
  158DIO     O1 8809   7.049   9.780   6.743
  158DIO    C13 8810   6.955   9.682   6.713
  158DIO     O2 8811   6.954   9.557   6.726
  158DIO    C14 8812   6.826   9.739   6.673
  158DIO    C15 8813   6.759   9.845   6.752
  158DIO     F5 8814   6.822   9.899   6.859
  158DIO    C16 8815   6.629   9.898   6.718
  158DIO    C17 8816   6.553   9.843   6.607
  158DIO    C18 8817   6.622   9.750   6.517
  158DIO    C19 8818   6.753   9.699   6.550
  158DIO     F6 8819   6.816   9.625   6.456
  158DIO    C20 8820   6.412   9.889   6.577
  158DIO     O3 8821   6.342   9.939   6.691
  158DIO    C21 8822   6.299   9.836   6.779
  158DIO    C22 8823   6.210   9.736   6.705
  158DIO    C23 8824   6.291   9.684   6.586
  158DIO     O4 8825   6.335   9.792   6.505
  158DIO    C24 8826   6.077   9.798   6.656
  158DIO    C25 8827   5.986   9.856   6.765
  158DIO    C26 8828   5.948   9.757   6.873
  158DIO     H1 8829   7.669   9.761   6.573
  158DIO     H2 8830   7.627   9.659   7.002
  158DIO     H3 8831   7.450   9.873   6.945
  158DIO     H4 8832   7.199   9.894   6.924
  158DIO     H5 8833   7.200   9.613   6.589
  158DIO     H6 8834   6.591   9.982   6.775
  158DIO     H7 8835   6.579   9.723   6.421
  158DIO     H8 8836   6.422   9.975   6.509
  158DIO     H9 8837   6.385   9.785   6.823
  158DIO    H10 8838   6.246   9.882   6.862
  158DIO    H11 8839   6.187   9.651   6.772
  158DIO    H12 8840   6.230   9.618   6.524
  158DIO    H13 8841   6.377   9.625   6.620
  158DIO    H14 8842   6.097   9.877   6.583
  158DIO    H15 8843   6.021   9.720   6.603
  158DIO    H16 8844   6.034   9.944   6.811
  158DIO    H17 8845   5.895   9.893   6.717
  158DIO    H18 8846   5.904   9.666   6.830
  158DIO    H19 8847   6.035   9.728   6.934
  158DIO    H20 8848   5.874   9.802   6.941
  159DIO     F1 8849   4.660   9.047   2.099
  159DIO     C1 8850   4.582   9.135   2.166
  159DIO     C2 8851   4.438   9.128   2.150
  159DIO     C3 8852   4.349   9.224   2.220
  159DIO     C4 8853   4.415   9.323   2.308
  159DIO     C5 8854   4.559   9.328   2.322
  159DIO     F2 8855   4.614   9.417   2.406
  159DIO     C6 8856   4.643   9.233   2.252
  159DIO     F3 8857   4.776   9.239   2.265
  159DIO     C7 8858   4.203   9.220   2.204
  159DIO     C8 8859   4.126   9.342   2.171
  159DIO     C9 8860   3.981   9.338   2.157
  159DIO    C10 8861   3.908   9.215   2.184
  159DIO    C11 8862   3.981   9.092   2.210
  159DIO    C12 8863   4.125   9.095   2.222
  159DIO     F4 8864   4.190   8.981   2.251
  159DIO     O1 8865   3.776   9.212   2.145
  159DIO    C13 8866   3.682   9.141   2.219
  159DIO     O2 8867   3.681   9.097   2.336
  159DIO    C14 8868   3.552   9.131   2.150
  159DIO    C15 8869   3.486   9.250   2.091
  159DIO     F5 8870   3.549   9.369   2.090
  159DIO    C16 8871   3.355   9.243   2.028
  159DIO    C17 8872   3.280   9.118   2.028
  159DIO    C18 8873   3.348   8.997   2.070
  159DIO    C19 8874   3.480   9.004   2.131
  159DIO     F6 8875   3.542   8.886   2.154
  159DIO    C20 8876   3.139   9.112   1.973
  159DIO     O3 8877   3.069   9.237   1.980
  159DIO    C21 8878   3.025   9.269   2.111
  159DIO    C22 8879   2.937   9.159   2.167
  159DIO    C23 8880   3.017   9.029   2.160
  159DIO     O4 8881   3.062   9.005   2.027
  159DIO    C24 8882   2.804   9.143   2.090
  159DIO    C25 8883   2.713   9.266   2.086
  159DIO    C26 8884   2.675   9.318   2.224
  159DIO     H1 8885   4.395   9.052   2.086
  159DIO     H2 8886   4.354   9.389   2.369
  159DIO     H3 8887   4.177   9.435   2.152
  159DIO     H4 8888   3.926   9.425   2.124
  159DIO     H5 8889   3.926   9.000   2.225
  159DIO     H6 8890   3.317   9.332   1.979
  159DIO     H7 8891   3.305   8.899   2.051
  159DIO     H8 8892   3.149   9.090   1.866
  159DIO     H9 8893   3.112   9.286   2.176
  159DIO    H10 8894   2.973   9.365   2.107
  159DIO    H11 8895   2.914   9.180   2.273
  159DIO    H12 8896   2.956   8.944   2.191
  159DIO    H13 8897   3.103   9.033   2.228
  159DIO    H14 8898   2.824   9.112   1.987
  159DIO    H15 8899   2.747   9.060   2.136
  159DIO    H16 8900   2.760   9.346   2.029
  159DIO    H17 8901   2.621   9.239   2.032
  159DIO    H18 8902   2.631   9.239   2.285
  159DIO    H19 8903   2.761   9.360   2.277
  159DIO    H20 8904   2.601   9.399   2.214
  160DIO     F1 8905   6.059   6.129   5.285
  160DIO     C1 8906   5.982   6.081   5.186
  160DIO     C2 8907   5.838   6.080   5.203
  160DIO     C3 8908   5.749   6.026   5.097
  160DIO     C4 8909   5.814   5.976   4.974
  160DIO     C5 8910   5.959   5.978   4.959
  160DIO     F2 8911   6.014   5.936   4.844
  160DIO     C6 8912   6.042   6.031   5.064
  160DIO     F3 8913   6.176   6.032   5.050
  160DIO     C7 8914   5.602   6.022   5.113
  160DIO     C8 8915   5.525   5.898   5.088
  160DIO     C9 8916   5.381   5.895   5.103
  160DIO    C10 8917   5.308   6.017   5.133
  160DIO    C11 8918   5.381   6.139   5.165
  160DIO    C12 8919   5.525   6.141   5.153
  160DIO     F4 8920   5.590   6.257   5.179
  160DIO     O1 8921   5.176   6.002   5.169
  160DIO    C13 8922   5.081   6.099   5.135
  160DIO     O2 8923   5.080   6.191   5.050
  160DIO    C14 8924   4.952   6.077   5.201
  160DIO    C15 8925   4.886   5.944   5.201
  160DIO     F5 8926   4.949   5.838   5.148
  160DIO    C16 8927   4.755   5.922   5.260
  160DIO    C17 8928   4.679   6.034   5.316
  160DIO    C18 8929   4.748   6.161   5.333
  160DIO    C19 8930   4.880   6.183   5.275
  160DIO     F6 8931   4.942   6.298   5.307
  160DIO    C20 8932   4.539   6.015   5.368
  160DIO     O3 8933   4.469   5.906   5.306
  160DIO    C21 8934   4.425   5.936   5.174
  160DIO    C22 8935   4.336   6.060   5.173
  160DIO    C23 8936   4.417   6.173   5.238
  160DIO     O4 8937   4.461   6.135   5.368
  160DIO    C24 8938   4.204   6.040   5.249
  160DIO    C25 8939   4.113   5.928   5.198
  160DIO    C26 8940   4.074   5.943   5.051
  160DIO     H1 8941   5.795   6.119   5.294
  160DIO     H2 8942   5.754   5.944   4.889
  160DIO     H3 8943   5.577   5.807   5.063
  160DIO     H4 8944   5.326   5.803   5.093
  160DIO     H5 8945   5.326   6.228   5.193
  160DIO     H6 8946   4.717   5.821   5.264
  160DIO     H7 8947   4.705   6.240   5.393
  160DIO     H8 8948   4.548   5.986   5.473
  160DIO     H9 8949   4.512   5.951   5.109
  160DIO    H10 8950   4.372   5.849   5.135
  160DIO    H11 8951   4.314   6.088   5.070
  160DIO    H12 8952   4.356   6.263   5.248
  160DIO    H13 8953   4.503   6.200   5.175
  160DIO    H14 8954   4.223   6.021   5.356
  160DIO    H15 8955   4.147   6.134   5.246
  160DIO    H16 8956   4.160   5.830   5.213
  160DIO    H17 8957   4.021   5.927   5.258
  160DIO    H18 8958   4.031   6.041   5.031
  160DIO    H19 8959   4.161   5.930   4.985
  160DIO    H20 8960   4.001   5.866   5.024
  161DIO     F1 8961   9.584   4.814   9.679
  161DIO     C1 8962   9.507   4.733   9.754
  161DIO     C2 8963   9.363   4.749   9.750
  161DIO     C3 8964   9.274   4.664   9.832
  161DIO     C4 8965   9.339   4.561   9.916
  161DIO     C5 8966   9.484   4.546   9.917
  161DIO     F2 8967   9.539   4.448   9.991
  161DIO     C6 8968   9.567   4.631   9.836
  161DIO     F3 8969   9.701   4.618   9.840
  161DIO     C7 8970   9.127   4.680   9.831
  161DIO     C8 8971   9.050   4.692   9.957
  161DIO     C9 8972   8.906   4.707   9.955
  161DIO    C10 8973   8.833   4.701   9.830
  161DIO    C11 8974   8.906   4.697   9.704
  161DIO    C12 8975   9.050   4.684   9.705
  161DIO     F4 8976   9.115   4.675   9.588
  161DIO     O1 8977   8.701   4.740   9.834
  161DIO    C13 8978   8.606   4.679   9.751
  161DIO     O2 8979   8.605   4.571   9.687
  161DIO    C14 8980   8.477   4.749   9.753
  161DIO    C15 8981   8.411   4.787   9.880
  161DIO     F5 8982   8.474   4.767   9.997
  161DIO    C16 8983   8.280   4.850   9.884
  161DIO    C17 8984   8.204   4.872   9.761
  161DIO    C18 8985   8.273   4.850   9.634
  161DIO    C19 8986   8.405   4.789   9.630
  161DIO     F6 8987   8.467   4.786   9.511
  161DIO    C20 8988   8.064   4.926   9.764
  161DIO     O3 8989   7.994   4.899   9.886
  161DIO    C21 8990   7.950   4.764   9.895
  161DIO    C22 8991   7.861   4.727   9.777
  161DIO    C23 8992   7.942   4.756   9.651
  161DIO     O4 8993   7.986   4.891   9.649
  161DIO    C24 8994   7.729   4.806   9.774
  161DIO    C25 8995   7.638   4.789   9.896
  161DIO    C26 8996   7.599   4.644   9.925
  161DIO     H1 8997   9.320   4.826   9.686
  161DIO     H2 8998   9.279   4.489   9.970
  161DIO     H3 8999   9.102   4.695  10.052
  161DIO     H4 9000   8.851   4.725  10.047
  161DIO     H5 9001   8.851   4.698   9.611
  161DIO     H6 9002   8.242   4.884   9.979
  161DIO     H7 9003   8.230   4.885   9.541
  161DIO     H8 9004   8.073   5.035   9.761
  161DIO     H9 9005   8.037   4.697   9.901
  161DIO    H10 9006   7.897   4.752   9.990
  161DIO    H11 9007   7.839   4.620   9.780
  161DIO    H12 9008   7.881   4.740   9.561
  161DIO    H13 9009   8.028   4.689   9.643
  161DIO    H14 9010   7.748   4.913   9.762
  161DIO    H15 9011   7.672   4.775   9.685
  161DIO    H16 9012   7.685   4.832   9.985
  161DIO    H17 9013   7.546   4.846   9.880
  161DIO    H18 9014   7.556   4.597   9.837
  161DIO    H19 9015   7.686   4.585   9.956
  161DIO    H20 9016   7.526   4.640  10.006
  162DIO     F1 9017   8.014   4.048   5.238
  162DIO     C1 9018   7.937   3.952   5.291
  162DIO     C2 9019   7.792   3.969   5.292
  162DIO     C3 9020   7.704   3.866   5.351
  162DIO     C4 9021   7.769   3.746   5.407
  162DIO     C5 9022   7.913   3.731   5.405
  162DIO     F2 9023   7.969   3.619   5.454
  162DIO     C6 9024   7.997   3.834   5.347
  162DIO     F3 9025   8.131   3.819   5.347
  162DIO     C7 9026   7.557   3.882   5.354
  162DIO     C8 9027   7.480   3.864   5.478
  162DIO     C9 9028   7.335   3.879   5.481
  162DIO    C10 9029   7.263   3.903   5.358
  162DIO    C11 9030   7.335   3.929   5.234
  162DIO    C12 9031   7.479   3.916   5.233
  162DIO     F4 9032   7.544   3.936   5.116
  162DIO     O1 9033   7.131   3.940   5.371
  162DIO    C13 9034   7.036   3.901   5.276
  162DIO     O2 9035   7.035   3.811   5.188
  162DIO    C14 9036   6.907   3.968   5.294
  162DIO    C15 9037   6.841   3.975   5.426
  162DIO     F5 9038   6.903   3.927   5.536
  162DIO    C16 9039   6.710   4.035   5.445
  162DIO    C17 9040   6.634   4.085   5.331
  162DIO    C18 9041   6.703   4.095   5.203
  162DIO    C19 9042   6.835   4.036   5.185
  162DIO     F6 9043   6.897   4.062   5.068
  162DIO    C20 9044   6.493   4.137   5.348
  162DIO     O3 9045   6.424   4.081   5.460
  162DIO    C21 9046   6.380   3.948   5.436
  162DIO    C22 9047   6.291   3.940   5.312
  162DIO    C23 9048   6.372   3.999   5.197
  162DIO     O4 9049   6.416   4.131   5.227
  162DIO    C24 9050   6.158   4.018   5.328
  162DIO    C25 9051   6.068   3.972   5.443
  162DIO    C26 9052   6.029   3.825   5.436
  162DIO     H1 9053   7.750   4.058   5.248
  162DIO     H2 9054   7.709   3.663   5.443
  162DIO     H3 9055   7.532   3.844   5.571
  162DIO     H4 9056   7.280   3.874   5.574
  162DIO     H5 9057   7.281   3.952   5.144
  162DIO     H6 9058   6.672   4.044   5.546
  162DIO     H7 9059   6.660   4.151   5.121
  162DIO     H8 9060   6.503   4.244   5.370
  162DIO     H9 9061   6.467   3.882   5.425
  162DIO    H10 9062   6.327   3.914   5.526
  162DIO    H11 9063   6.269   3.836   5.290
  162DIO    H12 9064   6.311   4.005   5.106
  162DIO    H13 9065   6.458   3.935   5.173
  162DIO    H14 9066   6.178   4.125   5.342
  162DIO    H15 9067   6.102   4.009   5.235
  162DIO    H16 9068   6.115   3.993   5.540
  162DIO    H17 9069   5.976   4.032   5.441
  162DIO    H18 9070   5.985   3.800   5.339
  162DIO    H19 9071   6.116   3.760   5.453
  162DIO    H20 9072   5.956   3.802   5.514
  163DIO     F1 9073   9.711   1.424   7.070
  163DIO     C1 9074   9.634   1.366   6.976
  163DIO     C2 9075   9.489   1.366   6.993
  163DIO     C3 9076   9.401   1.302   6.894
  163DIO     C4 9077   9.466   1.239   6.776
  163DIO     C5 9078   9.610   1.240   6.762
  163DIO     F2 9079   9.666   1.186   6.651
  163DIO     C6 9080   9.694   1.304   6.861
  163DIO     F3 9081   9.828   1.303   6.847
  163DIO     C7 9082   9.254   1.300   6.910
  163DIO     C8 9083   9.177   1.174   6.898
  163DIO     C9 9084   9.032   1.173   6.913
  163DIO    C10 9085   8.960   1.297   6.930
  163DIO    C11 9086   9.032   1.421   6.950
  163DIO    C12 9087   9.176   1.422   6.938
  163DIO     F4 9088   9.241   1.540   6.951
  163DIO     O1 9089   8.828   1.286   6.968
  163DIO    C13 9090   8.733   1.378   6.924
  163DIO     O2 9091   8.732   1.461   6.830
  163DIO    C14 9092   8.604   1.363   6.992
  163DIO    C15 9093   8.538   1.232   7.006
  163DIO     F5 9094   8.600   1.120   6.964
  163DIO    C16 9095   8.407   1.216   7.067
  163DIO    C17 9096   8.331   1.332   7.111
  163DIO    C18 9097   8.400   1.461   7.114
  163DIO    C19 9098   8.532   1.476   7.055
  163DIO     F6 9099   8.594   1.594   7.074
  163DIO    C20 9100   8.190   1.319   7.164
  163DIO     O3 9101   8.121   1.204   7.114
  163DIO    C21 9102   8.077   1.221   6.980
  163DIO    C22 9103   7.988   1.344   6.966
  163DIO    C23 9104   8.069   1.462   7.018
  163DIO     O4 9105   8.113   1.439   7.152
  163DIO    C24 9106   7.855   1.332   7.044
  163DIO    C25 9107   7.765   1.215   7.004
  163DIO    C26 9108   7.726   1.214   6.857
  163DIO     H1 9109   9.447   1.415   7.080
  163DIO     H2 9110   9.406   1.199   6.696
  163DIO     H3 9111   9.229   1.080   6.882
  163DIO     H4 9112   8.977   1.080   6.912
  163DIO     H5 9113   8.978   1.513   6.969
  163DIO     H6 9114   8.369   1.116   7.081
  163DIO     H7 9115   8.357   1.546   7.166
  163DIO     H8 9116   8.200   1.301   7.272
  163DIO     H9 9117   8.164   1.228   6.913
  163DIO    H10 9118   8.024   1.130   6.950
  163DIO    H11 9119   7.966   1.361   6.860
  163DIO    H12 9120   8.008   1.553   7.019
  163DIO    H13 9121   8.155   1.483   6.954
  163DIO    H14 9122   7.875   1.324   7.151
  163DIO    H15 9123   7.799   1.425   7.030
  163DIO    H16 9124   7.812   1.120   7.030
  163DIO    H17 9125   7.673   1.221   7.064
  163DIO    H18 9126   7.682   1.310   6.827
  163DIO    H19 9127   7.813   1.195   6.793
  163DIO    H20 9128   7.653   1.136   6.838
  164DIO     F1 9129   5.417   2.697   9.041
  164DIO     C1 9130   5.340   2.606   8.979
  164DIO     C2 9131   5.196   2.613   8.994
  164DIO     C3 9132   5.107   2.514   8.929
  164DIO     C4 9133   5.172   2.410   8.847
  164DIO     C5 9134   5.317   2.405   8.833
  164DIO     F2 9135   5.372   2.312   8.754
  164DIO     C6 9136   5.400   2.503   8.898
  164DIO     F3 9137   5.534   2.497   8.885
  164DIO     C7 9138   4.960   2.519   8.945
  164DIO     C8 9139   4.883   2.399   8.984
  164DIO     C9 9140   4.739   2.404   8.999
  164DIO    C10 9141   4.666   2.525   8.965
  164DIO    C11 9142   4.738   2.647   8.933
  164DIO    C12 9143   4.883   2.643   8.921
  164DIO     F4 9144   4.947   2.756   8.886
  164DIO     O1 9145   4.534   2.530   9.003
  164DIO    C13 9146   4.439   2.597   8.926
  164DIO     O2 9147   4.438   2.635   8.806
  164DIO    C14 9148   4.310   2.610   8.995
  164DIO    C15 9149   4.244   2.495   9.060
  164DIO     F5 9150   4.306   2.376   9.066
  164DIO    C16 9151   4.113   2.505   9.122
  164DIO    C17 9152   4.037   2.630   9.116
  164DIO    C18 9153   4.106   2.749   9.067
  164DIO    C19 9154   4.238   2.739   9.006
  164DIO     F6 9155   4.300   2.855   8.977
  164DIO    C20 9156   3.897   2.639   9.170
  164DIO     O3 9157   3.827   2.514   9.170
  164DIO    C21 9158   3.783   2.475   9.040
  164DIO    C22 9159   3.694   2.582   8.978
  164DIO    C23 9160   3.775   2.712   8.979
  164DIO     O4 9161   3.819   2.743   9.110
  164DIO    C24 9162   3.561   2.602   9.055
  164DIO    C25 9163   3.471   2.479   9.065
  164DIO    C26 9164   3.432   2.420   8.930
  164DIO     H1 9165   5.153   2.693   9.054
  164DIO     H2 9166   5.112   2.341   8.789
  164DIO     H3 9167   4.935   2.307   9.008
  164DIO     H4 9168   4.683   2.319   9.036
  164DIO     H5 9169   4.684   2.738   8.913
  164DIO     H6 9170   4.075   2.419   9.176
  164DIO     H7 9171   4.063   2.847   9.080
  164DIO     H8 9172   3.906   2.666   9.276
  164DIO     H9 9173   3.870   2.455   8.976
  164DIO    H10 9174   3.730   2.380   9.050
  164DIO    H11 9175   3.672   2.555   8.874
  164DIO    H12 9176   3.714   2.795   8.943
  164DIO    H13 9177   3.861   2.705   8.911
  164DIO    H14 9178   3.581   2.638   9.156
  164DIO    H15 9179   3.505   2.682   9.005
  164DIO    H16 9180   3.518   2.402   9.127
  164DIO    H17 9181   3.379   2.509   9.117
  164DIO    H18 9182   3.388   2.495   8.865
  164DIO    H19 9183   3.519   2.376   8.880
  164DIO    H20 9184   3.359   2.340   8.944
  165DIO     F1 9185   5.513   6.721   8.420
  165DIO     C1 9186   5.436   6.612   8.434
  165DIO     C2 9187   5.292   6.627   8.441
  165DIO     C3 9188   5.203   6.510   8.459
  165DIO     C4 9189   5.268   6.377   8.467
  165DIO     C5 9190   5.413   6.365   8.460
  165DIO     F2 9191   5.468   6.242   8.464
  165DIO     C6 9192   5.496   6.481   8.443
  165DIO     F3 9193   5.630   6.468   8.438
  165DIO     C7 9194   5.056   6.524   8.467
  165DIO     C8 9195   4.979   6.461   8.576
  165DIO     C9 9196   4.835   6.474   8.584
  165DIO    C10 9197   4.762   6.541   8.478
  165DIO    C11 9198   4.835   6.611   8.373
  165DIO    C12 9199   4.979   6.600   8.367
  165DIO     F4 9200   5.044   6.660   8.265
  165DIO     O1 9201   4.630   6.571   8.504
  165DIO    C13 9202   4.535   6.569   8.401
  165DIO     O2 9203   4.534   6.518   8.287
  165DIO    C14 9204   4.406   6.625   8.443
  165DIO    C15 9205   4.340   6.583   8.569
  165DIO     F5 9206   4.403   6.499   8.653
  165DIO    C16 9207   4.209   6.632   8.608
  165DIO    C17 9208   4.133   6.720   8.520
  165DIO    C18 9209   4.202   6.777   8.405
  165DIO    C19 9210   4.334   6.729   8.366
  165DIO     F6 9211   4.396   6.795   8.267
  165DIO    C20 9212   3.993   6.763   8.555
  165DIO     O3 9213   3.923   6.670   8.638
  165DIO    C21 9214   3.879   6.555   8.568
  165DIO    C22 9215   3.790   6.593   8.450
  165DIO    C23 9216   3.871   6.690   8.364
  165DIO     O4 9217   3.915   6.801   8.440
  165DIO    C24 9218   3.658   6.659   8.493
  165DIO    C25 9219   3.567   6.575   8.583
  165DIO    C26 9220   3.528   6.440   8.523
  165DIO     H1 9221   5.249   6.726   8.433
  165DIO     H2 9222   5.208   6.287   8.470
  165DIO     H3 9223   5.031   6.408   8.656
  165DIO     H4 9224   4.780   6.435   8.669
  165DIO     H5 9225   4.780   6.665   8.297
  165DIO     H6 9226   4.171   6.604   8.706
  165DIO     H7 9227   4.159   6.859   8.349
  165DIO     H8 9228   4.002   6.854   8.615
  165DIO     H9 9229   3.966   6.497   8.534
  165DIO    H10 9230   3.826   6.490   8.639
  165DIO    H11 9231   3.768   6.504   8.391
  165DIO    H12 9232   3.810   6.728   8.281
  165DIO    H13 9233   3.957   6.639   8.318
  165DIO    H14 9234   3.677   6.754   8.545
  165DIO    H15 9235   3.601   6.685   8.403
  165DIO    H16 9236   3.614   6.559   8.681
  165DIO    H17 9237   3.475   6.632   8.603
  165DIO    H18 9238   3.485   6.453   8.423
  165DIO    H19 9239   3.615   6.374   8.515
  165DIO    H20 9240   3.455   6.390   8.587
  166DIO     F1 9241   5.307   1.776   2.515
  166DIO     C1 9242   5.230   1.833   2.421
  166DIO     C2 9243   5.086   1.818   2.429
  166DIO     C3 9244   4.997   1.876   2.326
  166DIO     C4 9245   5.062   1.952   2.216
  166DIO     C5 9246   5.207   1.965   2.210
  166DIO     F2 9247   5.262   2.038   2.112
  166DIO     C6 9248   5.290   1.906   2.312
  166DIO     F3 9249   5.424   1.919   2.305
  166DIO     C7 9250   4.850   1.861   2.332
  166DIO     C8 9251   4.773   1.814   2.214
  166DIO     C9 9252   4.629   1.800   2.220
  166DIO    C10 9253   4.556   1.842   2.338
  166DIO    C11 9254   4.628   1.881   2.458
  166DIO    C12 9255   4.773   1.893   2.453
  166DIO     F4 9256   4.837   1.935   2.563
  166DIO     O1 9257   4.424   1.803   2.346
  166DIO    C13 9258   4.329   1.885   2.408
  166DIO     O2 9259   4.328   2.007   2.438
  166DIO    C14 9260   4.200   1.817   2.426
  166DIO    C15 9261   4.134   1.745   2.315
  166DIO     F5 9262   4.196   1.730   2.197
  166DIO    C16 9263   4.003   1.683   2.329
  166DIO    C17 9264   3.927   1.698   2.453
  166DIO    C18 9265   3.996   1.754   2.569
  166DIO    C19 9266   4.128   1.814   2.555
  166DIO     F6 9267   4.190   1.851   2.669
  166DIO    C20 9268   3.787   1.644   2.465
  166DIO     O3 9269   3.717   1.636   2.341
  166DIO    C21 9270   3.673   1.763   2.293
  166DIO    C22 9271   3.584   1.832   2.396
  166DIO    C23 9272   3.665   1.840   2.526
  166DIO     O4 9273   3.709   1.711   2.566
  166DIO    C24 9274   3.451   1.757   2.422
  166DIO    C25 9275   3.361   1.739   2.299
  166DIO    C26 9276   3.322   1.869   2.231
  166DIO     H1 9277   5.043   1.763   2.512
  166DIO     H2 9278   5.002   2.005   2.144
  166DIO     H3 9279   4.825   1.784   2.124
  166DIO     H4 9280   4.573   1.757   2.137
  166DIO     H5 9281   4.574   1.907   2.548
  166DIO     H6 9282   3.965   1.624   2.247
  166DIO     H7 9283   3.953   1.747   2.668
  166DIO     H8 9284   3.796   1.541   2.500
  166DIO     H9 9285   3.760   1.825   2.269
  166DIO    H10 9286   3.620   1.747   2.199
  166DIO    H11 9287   3.562   1.934   2.363
  166DIO    H12 9288   3.604   1.881   2.607
  166DIO    H13 9289   3.751   1.907   2.514
  166DIO    H14 9290   3.471   1.658   2.464
  166DIO    H15 9291   3.395   1.812   2.498
  166DIO    H16 9292   3.408   1.672   2.227
  166DIO    H17 9293   3.269   1.688   2.332
  166DIO    H18 9294   3.278   1.939   2.302
  166DIO    H19 9295   3.409   1.917   2.184
  166DIO    H20 9296   3.249   1.850   2.153
  167DIO     F1 9297   4.908   2.533   3.748
  167DIO     C1 9298   4.830   2.423   3.744
  167DIO     C2 9299   4.686   2.438   3.753
  167DIO     C3 9300   4.597   2.319   3.751
  167DIO     C4 9301   4.663   2.187   3.737
  167DIO     C5 9302   4.807   2.176   3.728
  167DIO     F2 9303   4.863   2.054   3.711
  167DIO     C6 9304   4.891   2.293   3.731
  167DIO     F3 9305   5.025   2.281   3.723
  167DIO     C7 9306   4.451   2.332   3.761
  167DIO     C8 9307   4.374   2.251   3.859
  167DIO     C9 9308   4.229   2.263   3.869
  167DIO    C10 9309   4.157   2.347   3.775
  167DIO    C11 9310   4.229   2.433   3.683
  167DIO    C12 9311   4.373   2.423   3.675
  167DIO     F4 9312   4.438   2.500   3.585
  167DIO     O1 9313   4.024   2.372   3.806
  167DIO    C13 9314   3.930   2.387   3.704
  167DIO     O2 9315   3.929   2.356   3.583
  167DIO    C14 9316   3.801   2.435   3.755
  167DIO    C15 9317   3.734   2.373   3.872
  167DIO     F5 9318   3.797   2.276   3.941
  167DIO    C16 9319   3.604   2.415   3.919
  167DIO    C17 9320   3.528   2.516   3.847
  167DIO    C18 9321   3.597   2.591   3.742
  167DIO    C19 9322   3.728   2.550   3.696
  167DIO     F6 9323   3.791   2.633   3.609
  167DIO    C20 9324   3.387   2.553   3.888
  167DIO     O3 9325   3.317   2.447   3.955
  167DIO    C21 9326   3.274   2.345   3.866
  167DIO    C22 9327   3.185   2.403   3.756
  167DIO    C23 9328   3.266   2.512   3.687
  167DIO     O4 9329   3.310   2.610   3.782
  167DIO    C24 9330   3.052   2.461   3.810
  167DIO    C25 9331   2.961   2.362   3.884
  167DIO    C26 9332   2.923   2.240   3.803
  167DIO     H1 9333   4.644   2.537   3.761
  167DIO     H2 9334   4.602   2.098   3.725
  167DIO     H3 9335   4.425   2.186   3.928
  167DIO     H4 9336   4.174   2.211   3.946
  167DIO     H5 9337   4.175   2.499   3.618
  167DIO     H6 9338   3.566   2.371   4.010
  167DIO     H7 9339   3.554   2.681   3.701
  167DIO     H8 9340   3.397   2.633   3.962
  167DIO     H9 9341   3.360   2.294   3.823
  167DIO    H10 9342   3.221   2.270   3.925
  167DIO    H11 9343   3.162   2.324   3.683
  167DIO    H12 9344   3.205   2.564   3.613
  167DIO    H13 9345   3.352   2.470   3.634
  167DIO    H14 9346   3.072   2.545   3.877
  167DIO    H15 9347   2.996   2.501   3.725
  167DIO    H16 9348   3.009   2.330   3.978
  167DIO    H17 9349   2.870   2.415   3.913
  167DIO    H18 9350   2.879   2.269   3.707
  167DIO    H19 9351   3.010   2.176   3.783
  167DIO    H20 9352   2.849   2.180   3.857
  168DIO     F1 9353   3.454   7.210   4.262
  168DIO     C1 9354   3.376   7.105   4.229
  168DIO     C2 9355   3.232   7.117   4.242
  168DIO     C3 9356   3.143   7.003   4.209
  168DIO     C4 9357   3.209   6.879   4.161
  168DIO     C5 9358   3.353   6.870   4.150
  168DIO     F2 9359   3.408   6.757   4.102
  168DIO     C6 9360   3.437   6.983   4.183
  168DIO     F3 9361   3.570   6.973   4.173
  168DIO     C7 9362   2.997   7.012   4.222
  168DIO     C8 9363   2.920   6.909   4.296
  168DIO     C9 9364   2.775   6.918   4.308
  168DIO    C10 9365   2.702   7.023   4.240
  168DIO    C11 9366   2.775   7.130   4.173
  168DIO    C12 9367   2.919   7.123   4.163
  168DIO     F4 9368   2.984   7.220   4.096
  168DIO     O1 9369   2.570   7.039   4.275
  168DIO    C13 9370   2.476   7.080   4.182
  168DIO     O2 9371   2.475   7.081   4.056
  168DIO    C14 9372   2.346   7.114   4.243
  168DIO    C15 9373   2.280   7.023   4.339
  168DIO     F5 9374   2.343   6.911   4.381
  168DIO    C16 9375   2.149   7.051   4.396
  168DIO    C17 9376   2.074   7.168   4.353
  168DIO    C18 9377   2.142   7.267   4.271
  168DIO    C19 9378   2.274   7.240   4.216
  168DIO     F6 9379   2.336   7.342   4.153
  168DIO    C20 9380   1.933   7.193   4.402
  168DIO     O3 9381   1.863   7.073   4.439
  168DIO    C21 9382   1.819   6.998   4.327
  168DIO    C22 9383   1.731   7.082   4.236
  168DIO    C23 9384   1.811   7.206   4.198
  168DIO     O4 9385   1.856   7.275   4.314
  168DIO    C24 9386   1.598   7.124   4.303
  168DIO    C25 9387   1.507   7.009   4.349
  168DIO    C26 9388   1.469   6.913   4.238
  168DIO     H1 9389   3.189   7.210   4.276
  168DIO     H2 9390   3.148   6.796   4.127
  168DIO     H3 9391   2.971   6.828   4.346
  168DIO     H4 9392   2.720   6.847   4.369
  168DIO     H5 9393   2.720   7.211   4.127
  168DIO     H6 9394   2.111   6.985   4.473
  168DIO     H7 9395   2.099   7.365   4.254
  168DIO     H8 9396   1.943   7.251   4.495
  168DIO     H9 9397   1.906   6.960   4.272
  168DIO    H10 9398   1.767   6.910   4.364
  168DIO    H11 9399   1.708   7.025   4.145
  168DIO    H12 9400   1.750   7.275   4.139
  168DIO    H13 9401   1.897   7.179   4.135
  168DIO    H14 9402   1.618   7.188   4.389
  168DIO    H15 9403   1.541   7.185   4.231
  168DIO    H16 9404   1.554   6.954   4.431
  168DIO    H17 9405   1.415   7.053   4.391
  168DIO    H18 9406   1.425   6.965   4.153
  168DIO    H19 9407   1.555   6.856   4.203
  168DIO    H20 9408   1.395   6.841   4.275
  169DIO     F1 9409   5.984   1.636   7.256
  169DIO     C1 9410   5.907   1.572   7.167
  169DIO     C2 9411   5.763   1.573   7.184
  169DIO     C3 9412   5.674   1.501   7.090
  169DIO     C4 9413   5.739   1.431   6.977
  169DIO     C5 9414   5.884   1.431   6.963
  169DIO     F2 9415   5.939   1.369   6.857
  169DIO     C6 9416   5.967   1.501   7.057
  169DIO     F3 9417   6.101   1.499   7.043
  169DIO     C7 9418   5.528   1.501   7.106
  169DIO     C8 9419   5.450   1.375   7.103
  169DIO     C9 9420   5.306   1.374   7.118
  169DIO    C10 9421   5.233   1.500   7.127
  169DIO    C11 9422   5.306   1.625   7.137
  169DIO    C12 9423   5.450   1.625   7.125
  169DIO     F4 9424   5.515   1.743   7.129
  169DIO     O1 9425   5.101   1.491   7.165
  169DIO    C13 9426   5.006   1.580   7.115
  169DIO     O2 9427   5.006   1.656   7.014
  169DIO    C14 9428   4.877   1.570   7.184
  169DIO    C15 9429   4.811   1.440   7.207
  169DIO     F5 9430   4.874   1.325   7.173
  169DIO    C16 9431   4.680   1.429   7.269
  169DIO    C17 9432   4.604   1.548   7.304
  169DIO    C18 9433   4.673   1.677   7.298
  169DIO    C19 9434   4.805   1.687   7.238
  169DIO     F6 9435   4.867   1.807   7.248
  169DIO    C20 9436   4.464   1.538   7.358
  169DIO     O3 9437   4.394   1.420   7.317
  169DIO    C21 9438   4.350   1.427   7.181
  169DIO    C22 9439   4.261   1.549   7.159
  169DIO    C23 9440   4.342   1.671   7.202
  169DIO     O4 9441   4.386   1.657   7.337
  169DIO    C24 9442   4.129   1.543   7.237
  169DIO    C25 9443   4.038   1.423   7.206
  169DIO    C26 9444   4.000   1.412   7.059
  169DIO     H1 9445   5.720   1.628   7.267
  169DIO     H2 9446   5.679   1.385   6.900
  169DIO     H3 9447   5.502   1.280   7.095
  169DIO     H4 9448   5.251   1.281   7.125
  169DIO     H5 9449   5.251   1.718   7.149
  169DIO     H6 9450   4.642   1.330   7.291
  169DIO     H7 9451   4.630   1.765   7.343
  169DIO     H8 9452   4.473   1.529   7.467
  169DIO     H9 9453   4.437   1.430   7.115
  169DIO    H10 9454   4.298   1.334   7.159
  169DIO    H11 9455   4.239   1.558   7.052
  169DIO    H12 9456   4.281   1.762   7.197
  169DIO    H13 9457   4.428   1.687   7.136
  169DIO    H14 9458   4.149   1.542   7.345
  169DIO    H15 9459   4.072   1.635   7.217
  169DIO    H16 9460   4.085   1.330   7.239
  169DIO    H17 9461   3.946   1.433   7.265
  169DIO    H18 9462   3.956   1.505   7.023
  169DIO    H19 9463   4.086   1.387   6.997
  169DIO    H20 9464   3.926   1.332   7.046
  170DIO     F1 9465   7.285   4.447   5.679
  170DIO     C1 9466   7.208   4.389   5.772
  170DIO     C2 9467   7.064   4.404   5.764
  170DIO     C3 9468   6.975   4.343   5.866
  170DIO     C4 9469   7.040   4.266   5.974
  170DIO     C5 9470   7.185   4.252   5.979
  170DIO     F2 9471   7.240   4.177   6.076
  170DIO     C6 9472   7.268   4.313   5.879
  170DIO     F3 9473   7.402   4.300   5.886
  170DIO     C7 9474   6.828   4.358   5.860
  170DIO     C8 9475   6.751   4.403   5.978
  170DIO     C9 9476   6.607   4.417   5.973
  170DIO    C10 9477   6.534   4.378   5.854
  170DIO    C11 9478   6.607   4.341   5.734
  170DIO    C12 9479   6.751   4.329   5.738
  170DIO     F4 9480   6.816   4.289   5.627
  170DIO     O1 9481   6.402   4.417   5.847
  170DIO    C13 9482   6.307   4.337   5.784
  170DIO     O2 9483   6.306   4.215   5.751
  170DIO    C14 9484   6.178   4.404   5.767
  170DIO    C15 9485   6.112   4.475   5.879
  170DIO     F5 9486   6.175   4.486   5.998
  170DIO    C16 9487   5.981   4.536   5.867
  170DIO    C17 9488   5.905   4.525   5.742
  170DIO    C18 9489   5.974   4.471   5.626
  170DIO    C19 9490   6.106   4.411   5.638
  170DIO     F6 9491   6.168   4.376   5.523
  170DIO    C20 9492   5.765   4.578   5.731
  170DIO     O3 9493   5.695   4.584   5.856
  170DIO    C21 9494   5.651   4.456   5.901
  170DIO    C22 9495   5.562   4.389   5.796
  170DIO    C23 9496   5.643   4.384   5.667
  170DIO     O4 9497   5.687   4.514   5.629
  170DIO    C24 9498   5.430   4.465   5.773
  170DIO    C25 9499   5.339   4.480   5.895
  170DIO    C26 9500   5.300   4.349   5.960
  170DIO     H1 9501   7.021   4.461   5.682
  170DIO     H2 9502   6.980   4.211   6.045
  170DIO     H3 9503   6.803   4.431   6.069
  170DIO     H4 9504   6.552   4.458   6.057
  170DIO     H5 9505   6.552   4.317   5.643
  170DIO     H6 9506   5.943   4.594   5.950
  170DIO     H7 9507   5.931   4.480   5.527
  170DIO     H8 9508   5.774   4.683   5.699
  170DIO     H9 9509   5.738   4.393   5.923
  170DIO    H10 9510   5.598   4.470   5.995
  170DIO    H11 9511   5.540   4.287   5.828
  170DIO    H12 9512   5.582   4.345   5.585
  170DIO    H13 9513   5.729   4.317   5.677
  170DIO    H14 9514   5.449   4.565   5.732
  170DIO    H15 9515   5.373   4.411   5.695
  170DIO    H16 9516   5.386   4.546   5.969
  170DIO    H17 9517   5.247   4.532   5.863
  170DIO    H18 9518   5.257   4.280   5.888
  170DIO    H19 9519   5.387   4.300   6.007
  170DIO    H20 9520   5.227   4.366   6.039
  171DIO     F1 9521   2.388   9.300   3.748
  171DIO     C1 9522   2.311   9.245   3.653
  171DIO     C2 9523   2.167   9.245   3.670
  171DIO     C3 9524   2.078   9.184   3.568
  171DIO     C4 9525   2.143   9.126   3.449
  171DIO     C5 9526   2.288   9.127   3.434
  171DIO     F2 9527   2.343   9.077   3.322
  171DIO     C6 9528   2.371   9.187   3.535
  171DIO     F3 9529   2.505   9.187   3.521
  171DIO     C7 9530   1.931   9.182   3.584
  171DIO     C8 9531   1.854   9.057   3.568
  171DIO     C9 9532   1.710   9.054   3.583
  171DIO    C10 9533   1.637   9.178   3.605
  171DIO    C11 9534   1.709   9.302   3.629
  171DIO    C12 9535   1.854   9.303   3.616
  171DIO     F4 9536   1.918   9.420   3.634
  171DIO     O1 9537   1.505   9.166   3.642
  171DIO    C13 9538   1.410   9.260   3.601
  171DIO     O2 9539   1.409   9.346   3.510
  171DIO    C14 9540   1.281   9.242   3.669
  171DIO    C15 9541   1.215   9.110   3.678
  171DIO     F5 9542   1.277   9.000   3.632
  171DIO    C16 9543   1.084   9.092   3.738
  171DIO    C17 9544   1.008   9.207   3.786
  171DIO    C18 9545   1.077   9.336   3.794
  171DIO    C19 9546   1.209   9.353   3.735
  171DIO     F6 9547   1.271   9.470   3.759
  171DIO    C20 9548   0.868   9.192   3.839
  171DIO     O3 9549   0.798   9.079   3.785
  171DIO    C21 9550   0.754   9.100   3.651
  171DIO    C22 9551   0.665   9.224   3.642
  171DIO    C23 9552   0.746   9.341   3.698
  171DIO     O4 9553   0.790   9.312   3.831
  171DIO    C24 9554   0.532   9.209   3.719
  171DIO    C25 9555   0.442   9.094   3.675
  171DIO    C26 9556   0.403   9.098   3.528
  171DIO     H1 9557   2.124   9.291   3.758
  171DIO     H2 9558   2.083   9.089   3.367
  171DIO     H3 9559   1.906   8.963   3.549
  171DIO     H4 9560   1.654   8.961   3.579
  171DIO     H5 9561   1.655   9.393   3.650
  171DIO     H6 9562   1.046   8.992   3.749
  171DIO     H7 9563   1.034   9.419   3.849
  171DIO     H8 9564   0.877   9.171   3.946
  171DIO     H9 9565   0.841   9.110   3.585
  171DIO    H10 9566   0.701   9.010   3.618
  171DIO    H11 9567   0.643   9.244   3.537
  171DIO    H12 9568   0.685   9.431   3.702
  171DIO    H13 9569   0.832   9.363   3.634
  171DIO    H14 9570   0.552   9.197   3.827
  171DIO    H15 9571   0.476   9.303   3.709
  171DIO    H16 9572   0.489   8.997   3.698
  171DIO    H17 9573   0.350   9.097   3.735
  171DIO    H18 9574   0.359   9.195   3.502
  171DIO    H19 9575   0.490   9.081   3.464
  171DIO    H20 9576   0.330   9.020   3.506
  172DIO     F1 9577   2.136   0.230   4.690
  172DIO     C1 9578   2.058   0.329   4.737
  172DIO     C2 9579   1.914   0.320   4.723
  172DIO     C3 9580   1.825   0.428   4.771
  172DIO     C4 9581   1.891   0.544   4.835
  172DIO     C5 9582   2.035   0.551   4.848
  172DIO     F2 9583   2.091   0.657   4.911
  172DIO     C6 9584   2.119   0.444   4.800
  172DIO     F3 9585   2.253   0.453   4.811
  172DIO     C7 9586   1.679   0.421   4.756
  172DIO     C8 9587   1.602   0.533   4.698
  172DIO     C9 9588   1.457   0.526   4.684
  172DIO    C10 9589   1.385   0.412   4.738
  172DIO    C11 9590   1.457   0.297   4.789
  172DIO    C12 9591   1.601   0.303   4.800
  172DIO     F4 9592   1.666   0.197   4.853
  172DIO     O1 9593   1.252   0.401   4.700
  172DIO    C13 9594   1.158   0.347   4.787
  172DIO     O2 9595   1.157   0.329   4.912
  172DIO    C14 9596   1.029   0.323   4.722
  172DIO    C15 9597   0.962   0.426   4.639
  172DIO     F5 9598   1.025   0.542   4.613
  172DIO    C16 9599   0.832   0.406   4.579
  172DIO    C17 9600   0.756   0.284   4.606
  172DIO    C18 9601   0.825   0.174   4.673
  172DIO    C19 9602   0.956   0.194   4.731
  172DIO     F6 9603   1.019   0.084   4.779
  172DIO    C20 9604   0.615   0.266   4.554
  172DIO     O3 9605   0.545   0.390   4.533
  172DIO    C21 9606   0.502   0.449   4.655
  172DIO    C22 9607   0.413   0.353   4.733
  172DIO    C23 9608   0.494   0.225   4.754
  172DIO     O4 9609   0.538   0.173   4.629
  172DIO    C24 9610   0.280   0.321   4.661
  172DIO    C25 9611   0.189   0.441   4.631
  172DIO    C26 9612   0.151   0.521   4.754
  172DIO     H1 9613   1.872   0.232   4.676
  172DIO     H2 9614   1.830   0.622   4.881
  172DIO     H3 9615   1.653   0.620   4.660
  172DIO     H4 9616   1.402   0.604   4.634
  172DIO     H5 9617   1.403   0.210   4.823
  172DIO     H6 9618   0.794   0.482   4.512
  172DIO     H7 9619   0.782   0.075   4.676
  172DIO     H8 9620   0.625   0.222   4.454
  172DIO     H9 9621   0.588   0.479   4.715
  172DIO    H10 9622   0.449   0.542   4.630
  172DIO    H11 9623   0.390   0.397   4.831
  172DIO    H12 9624   0.433   0.149   4.803
  172DIO    H13 9625   0.580   0.244   4.820
  172DIO    H14 9626   0.300   0.269   4.567
  172DIO    H15 9627   0.224   0.250   4.724
  172DIO    H16 9628   0.237   0.507   4.558
  172DIO    H17 9629   0.098   0.403   4.584
  172DIO    H18 9630   0.107   0.457   4.831
  172DIO    H19 9631   0.238   0.573   4.797
  172DIO    H20 9632   0.077   0.598   4.727
  173DIO     F1 9633   9.798   0.166   4.191
  173DIO     C1 9634   9.721   0.255   4.256
  173DIO     C2 9635   9.577   0.248   4.241
  173DIO     C3 9636   9.488   0.345   4.309
  173DIO     C4 9637   9.553   0.447   4.395
  173DIO     C5 9638   9.698   0.451   4.408
  173DIO     F2 9639   9.753   0.542   4.491
  173DIO     C6 9640   9.781   0.355   4.340
  173DIO     F3 9641   9.915   0.361   4.353
  173DIO     C7 9642   9.341   0.341   4.293
  173DIO     C8 9643   9.264   0.462   4.258
  173DIO     C9 9644   9.120   0.458   4.243
  173DIO    C10 9645   9.047   0.336   4.273
  173DIO    C11 9646   9.120   0.213   4.301
  173DIO    C12 9647   9.264   0.217   4.313
  173DIO     F4 9648   9.329   0.103   4.345
  173DIO     O1 9649   8.915   0.332   4.234
  173DIO    C13 9650   8.820   0.263   4.309
  173DIO     O2 9651   8.819   0.221   4.428
  173DIO    C14 9652   8.691   0.251   4.241
  173DIO    C15 9653   8.625   0.368   4.179
  173DIO     F5 9654   8.688   0.488   4.176
  173DIO    C16 9655   8.494   0.360   4.117
  173DIO    C17 9656   8.418   0.236   4.119
  173DIO    C18 9657   8.487   0.115   4.164
  173DIO    C19 9658   8.619   0.123   4.225
  173DIO     F6 9659   8.681   0.006   4.251
  173DIO    C20 9660   8.278   0.228   4.065
  173DIO     O3 9661   8.208   0.353   4.068
  173DIO    C21 9662   8.164   0.388   4.199
  173DIO    C22 9663   8.075   0.279   4.258
  173DIO    C23 9664   8.156   0.149   4.253
  173DIO     O4 9665   8.200   0.122   4.121
  173DIO    C24 9666   7.943   0.261   4.181
  173DIO    C25 9667   7.852   0.384   4.174
  173DIO    C26 9668   7.813   0.440   4.311
  173DIO     H1 9669   9.534   0.171   4.178
  173DIO     H2 9670   9.493   0.514   4.454
  173DIO     H3 9671   9.316   0.555   4.237
  173DIO     H4 9672   9.065   0.544   4.209
  173DIO     H5 9673   9.065   0.121   4.318
  173DIO     H6 9674   8.456   0.448   4.065
  173DIO     H7 9675   8.444   0.017   4.147
  173DIO     H8 9676   8.287   0.204   3.958
  173DIO     H9 9677   8.251   0.406   4.264
  173DIO    H10 9678   8.111   0.484   4.193
  173DIO    H11 9679   8.053   0.303   4.362
  173DIO    H12 9680   8.095   0.065   4.286
  173DIO    H13 9681   8.242   0.155   4.321
  173DIO    H14 9682   7.962   0.228   4.078
  173DIO    H15 9683   7.886   0.180   4.228
  173DIO    H16 9684   7.899   0.463   4.115
  173DIO    H17 9685   7.760   0.357   4.121
  173DIO    H18 9686   7.770   0.362   4.374
  173DIO    H19 9687   7.900   0.482   4.363
  173DIO    H20 9688   7.740   0.520   4.299
  174DIO     F1 9689   9.427   8.695   2.968
  174DIO     C1 9690   9.349   8.800   2.936
  174DIO     C2 9691   9.205   8.784   2.932
  174DIO     C3 9692   9.116   8.896   2.895
  174DIO     C4 9693   9.182   9.025   2.864
  174DIO     C5 9694   9.326   9.039   2.869
  174DIO     F2 9695   9.382   9.160   2.844
  174DIO     C6 9696   9.410   8.928   2.905
  174DIO     F3 9697   9.544   8.941   2.908
  174DIO     C7 9698   8.970   8.881   2.889
  174DIO     C8 9699   8.893   8.924   2.770
  174DIO     C9 9700   8.748   8.910   2.765
  174DIO    C10 9701   8.676   8.862   2.881
  174DIO    C11 9702   8.748   8.811   2.996
  174DIO    C12 9703   8.892   8.823   3.000
  174DIO     F4 9704   8.957   8.781   3.111
  174DIO     O1 9705   8.543   8.829   2.861
  174DIO    C13 9706   8.449   8.847   2.961
  174DIO     O2 9707   8.448   8.918   3.065
  174DIO    C14 9708   8.320   8.785   2.929
  174DIO    C15 9709   8.254   8.805   2.799
  174DIO     F5 9710   8.316   8.874   2.701
  174DIO    C16 9711   8.123   8.751   2.768
  174DIO    C17 9712   8.047   8.678   2.870
  174DIO    C18 9713   8.116   8.643   2.993
  174DIO    C19 9714   8.247   8.696   3.023
  174DIO     F6 9715   8.310   8.647   3.132
  174DIO    C20 9716   7.906   8.630   2.843
  174DIO     O3 9717   7.837   8.708   2.745
  174DIO    C21 9718   7.793   8.834   2.795
  174DIO    C22 9719   7.704   8.816   2.917
  174DIO    C23 9720   7.785   8.735   3.019
  174DIO     O4 9721   7.829   8.612   2.962
  174DIO    C24 9722   7.571   8.743   2.886
  174DIO    C25 9723   7.481   8.812   2.783
  174DIO    C26 9724   7.442   8.954   2.820
  174DIO     H1 9725   9.163   8.687   2.957
  174DIO     H2 9726   9.121   9.114   2.846
  174DIO     H3 9727   8.944   8.963   2.683
  174DIO     H4 9728   8.693   8.934   2.675
  174DIO     H5 9729   8.694   8.770   3.080
  174DIO     H6 9730   8.085   8.762   2.667
  174DIO     H7 9731   8.073   8.571   3.062
  174DIO     H8 9732   7.916   8.530   2.799
  174DIO     H9 9733   7.880   8.896   2.819
  174DIO    H10 9734   7.740   8.885   2.714
  174DIO    H11 9735   7.681   8.914   2.960
  174DIO    H12 9736   7.724   8.711   3.106
  174DIO    H13 9737   7.871   8.792   3.055
  174DIO    H14 9738   7.591   8.641   2.851
  174DIO    H15 9739   7.515   8.733   2.979
  174DIO    H16 9740   7.528   8.811   2.684
  174DIO    H17 9741   7.389   8.752   2.773
  174DIO    H18 9742   7.398   8.959   2.920
  174DIO    H19 9743   7.529   9.021   2.817
  174DIO    H20 9744   7.368   8.992   2.748
  175DIO     F1 9745   2.130   9.054   0.655
  175DIO     C1 9746   2.053   9.054   0.765
  175DIO     C2 9747   1.908   9.062   0.750
  175DIO     C3 9748   1.820   9.065   0.869
  175DIO     C4 9749   1.885   9.056   1.001
  175DIO     C5 9750   2.029   9.047   1.013
  175DIO     F2 9751   2.085   9.035   1.135
  175DIO     C6 9752   2.113   9.046   0.896
  175DIO     F3 9753   2.247   9.039   0.908
  175DIO     C7 9754   1.673   9.075   0.856
  175DIO     C8 9755   1.596   9.175   0.932
  175DIO     C9 9756   1.451   9.184   0.920
  175DIO    C10 9757   1.379   9.088   0.840
  175DIO    C11 9758   1.451   8.993   0.758
  175DIO    C12 9759   1.595   8.985   0.768
  175DIO     F4 9760   1.660   8.892   0.695
  175DIO     O1 9761   1.247   9.117   0.814
  175DIO    C13 9762   1.152   9.016   0.802
  175DIO     O2 9763   1.151   8.895   0.839
  175DIO    C14 9764   1.023   9.064   0.752
  175DIO    C15 9765   0.957   9.183   0.810
  175DIO     F5 9766   1.019   9.256   0.905
  175DIO    C16 9767   0.826   9.229   0.767
  175DIO    C17 9768   0.750   9.153   0.668
  175DIO    C18 9769   0.819   9.046   0.597
  175DIO    C19 9770   0.951   9.001   0.640
  175DIO     F6 9771   1.013   8.911   0.561
  175DIO    C20 9772   0.609   9.193   0.630
  175DIO     O3 9773   0.540   9.264   0.733
  175DIO    C21 9774   0.496   9.179   0.838
  175DIO    C22 9775   0.407   9.067   0.785
  175DIO    C23 9776   0.488   8.994   0.678
  175DIO     O4 9777   0.532   9.084   0.577
  175DIO    C24 9778   0.274   9.118   0.725
  175DIO    C25 9779   0.184   9.196   0.821
  175DIO    C26 9780   0.145   9.119   0.946
  175DIO     H1 9781   1.866   9.067   0.651
  175DIO     H2 9782   1.825   9.047   1.091
  175DIO     H3 9783   1.648   9.247   0.995
  175DIO     H4 9784   1.396   9.263   0.970
  175DIO     H5 9785   1.397   8.925   0.694
  175DIO     H6 9786   0.788   9.322   0.807
  175DIO     H7 9787   0.776   9.001   0.509
  175DIO     H8 9788   0.619   9.264   0.547
  175DIO     H9 9789   0.583   9.137   0.891
  175DIO    H10 9790   0.443   9.240   0.911
  175DIO    H11 9791   0.385   8.997   0.866
  175DIO    H12 9792   0.427   8.917   0.629
  175DIO    H13 9793   0.574   8.942   0.722
  175DIO    H14 9794   0.294   9.182   0.638
  175DIO    H15 9795   0.218   9.032   0.688
  175DIO    H16 9796   0.231   9.291   0.849
  175DIO    H17 9797   0.092   9.223   0.767
  175DIO    H18 9798   0.101   9.022   0.921
  175DIO    H19 9799   0.232   9.102   1.011
  175DIO    H20 9800   0.072   9.176   1.004
  176DIO     F1 9801   7.075   4.500   0.832
  176DIO     C1 9802   6.997   4.541   0.934
  176DIO     C2 9803   6.853   4.543   0.917
  176DIO     C3 9804   6.764   4.589   1.027
  176DIO     C4 9805   6.830   4.629   1.153
  176DIO     C5 9806   6.974   4.625   1.167
  176DIO     F2 9807   7.029   4.658   1.286
  176DIO     C6 9808   7.058   4.581   1.059
  176DIO     F3 9809   7.191   4.579   1.073
  176DIO     C7 9810   6.618   4.593   1.011
  176DIO     C8 9811   6.541   4.715   1.046
  176DIO     C9 9812   6.396   4.719   1.031
  176DIO    C10 9813   6.323   4.600   0.991
  176DIO    C11 9814   6.396   4.481   0.950
  176DIO    C12 9815   6.540   4.478   0.962
  176DIO     F4 9816   6.605   4.365   0.927
  176DIO     O1 9817   6.191   4.618   0.957
  176DIO    C13 9818   6.097   4.519   0.983
  176DIO     O2 9819   6.096   4.420   1.061
  176DIO    C14 9820   5.967   4.546   0.919
  176DIO    C15 9821   5.901   4.678   0.929
  176DIO     F5 9822   5.964   4.780   0.991
  176DIO    C16 9823   5.770   4.704   0.872
  176DIO    C17 9824   5.695   4.598   0.807
  176DIO    C18 9825   5.763   4.472   0.781
  176DIO    C19 9826   5.895   4.446   0.837
  176DIO     F6 9827   5.957   4.334   0.796
  176DIO    C20 9828   5.554   4.621   0.758
  176DIO     O3 9829   5.484   4.725   0.828
  176DIO    C21 9830   5.440   4.684   0.957
  176DIO    C22 9831   5.352   4.560   0.948
  176DIO    C23 9832   5.432   4.453   0.875
  176DIO     O4 9833   5.477   4.501   0.748
  176DIO    C24 9834   5.219   4.586   0.874
  176DIO    C25 9835   5.128   4.694   0.934
  176DIO    C26 9836   5.090   4.668   1.079
  176DIO     H1 9837   6.810   4.511   0.823
  176DIO     H2 9838   6.769   4.654   1.240
  176DIO     H3 9839   6.592   4.804   1.078
  176DIO     H4 9840   6.341   4.811   1.048
  176DIO     H5 9841   6.341   4.395   0.915
  176DIO     H6 9842   5.732   4.806   0.876
  176DIO     H7 9843   5.720   4.398   0.715
  176DIO     H8 9844   5.564   4.657   0.655
  176DIO     H9 9845   5.527   4.664   1.021
  176DIO    H10 9846   5.388   4.768   1.002
  176DIO    H11 9847   5.329   4.524   1.049
  176DIO    H12 9848   5.371   4.364   0.857
  176DIO    H13 9849   5.518   4.421   0.935
  176DIO    H14 9850   5.239   4.614   0.769
  176DIO    H15 9851   5.162   4.492   0.870
  176DIO    H16 9852   5.175   4.792   0.926
  176DIO    H17 9853   5.036   4.699   0.874
  176DIO    H18 9854   5.046   4.568   1.091
  176DIO    H19 9855   5.176   4.676   1.145
  176DIO    H20 9856   5.016   4.742   1.112
  177DIO     F1 9857   2.650   9.066   5.055
  177DIO     C1 9858   2.573   9.175   5.035
  177DIO     C2 9859   2.429   9.159   5.029
  177DIO     C3 9860   2.340   9.275   5.005
  177DIO     C4 9861   2.405   9.407   4.989
  177DIO     C5 9862   2.550   9.420   4.995
  177DIO     F2 9863   2.605   9.542   4.985
  177DIO     C6 9864   2.633   9.305   5.019
  177DIO     F3 9865   2.767   9.318   5.023
  177DIO     C7 9866   2.194   9.260   4.997
  177DIO     C8 9867   2.116   9.317   4.885
  177DIO     C9 9868   1.972   9.303   4.878
  177DIO    C10 9869   1.899   9.242   4.987
  177DIO    C11 9870   1.972   9.179   5.096
  177DIO    C12 9871   2.116   9.190   5.102
  177DIO     F4 9872   2.181   9.135   5.206
  177DIO     O1 9873   1.767   9.211   4.963
  177DIO    C13 9874   1.672   9.219   5.065
  177DIO     O2 9875   1.672   9.276   5.177
  177DIO    C14 9876   1.543   9.160   5.027
  177DIO    C15 9877   1.477   9.195   4.899
  177DIO     F5 9878   1.540   9.275   4.810
  177DIO    C16 9879   1.346   9.144   4.862
  177DIO    C17 9880   1.270   9.061   4.955
  177DIO    C18 9881   1.339   9.011   5.074
  177DIO    C19 9882   1.471   9.061   5.109
  177DIO     F6 9883   1.533   9.000   5.212
  177DIO    C20 9884   1.130   9.016   4.923
  177DIO     O3 9885   1.060   9.105   4.834
  177DIO    C21 9886   1.016   9.224   4.898
  177DIO    C22 9887   0.927   9.192   5.018
  177DIO    C23 9888   1.008   9.100   5.110
  177DIO     O4 9889   1.052   8.985   5.039
  177DIO    C24 9890   0.795   9.124   4.979
  177DIO    C25 9891   0.704   9.203   4.884
  177DIO    C26 9892   0.666   9.341   4.937
  177DIO     H1 9893   2.386   9.060   5.043
  177DIO     H2 9894   2.345   9.496   4.981
  177DIO     H3 9895   2.168   9.365   4.803
  177DIO     H4 9896   1.917   9.337   4.791
  177DIO     H5 9897   1.917   9.128   5.175
  177DIO     H6 9898   1.308   9.167   4.763
  177DIO     H7 9899   1.296   8.932   5.134
  177DIO     H8 9900   1.139   8.922   4.868
  177DIO     H9 9901   1.103   9.283   4.929
  177DIO    H10 9902   0.964   9.284   4.824
  177DIO    H11 9903   0.905   9.285   5.072
  177DIO    H12 9904   0.947   9.066   5.194
  177DIO    H13 9905   1.094   9.153   5.152
  177DIO    H14 9906   0.815   9.026   4.932
  177DIO    H15 9907   0.738   9.103   5.070
  177DIO    H16 9908   0.751   9.214   4.786
  177DIO    H17 9909   0.612   9.145   4.868
  177DIO    H18 9910   0.622   9.334   5.037
  177DIO    H19 9911   0.752   9.407   4.941
  177DIO    H20 9912   0.592   9.387   4.870
  178DIO     F1 9913   2.796   3.513   6.557
  178DIO     C1 9914   2.718   3.523   6.447
  178DIO     C2 9915   2.574   3.513   6.461
  178DIO     C3 9916   2.485   3.521   6.343
  178DIO     C4 9917   2.551   3.542   6.211
  178DIO     C5 9918   2.695   3.552   6.200
  178DIO     F2 9919   2.750   3.575   6.080
  178DIO     C6 9920   2.779   3.543   6.318
  178DIO     F3 9921   2.913   3.550   6.306
  178DIO     C7 9922   2.339   3.510   6.354
  178DIO     C8 9923   2.262   3.417   6.269
  178DIO     C9 9924   2.117   3.406   6.280
  178DIO    C10 9925   2.044   3.495   6.369
  178DIO    C11 9926   2.117   3.583   6.460
  178DIO    C12 9927   2.261   3.591   6.450
  178DIO     F4 9928   2.326   3.677   6.532
  178DIO     O1 9929   1.912   3.464   6.392
  178DIO    C13 9930   1.818   3.564   6.413
  178DIO     O2 9931   1.817   3.687   6.388
  178DIO    C14 9932   1.689   3.511   6.458
  178DIO    C15 9933   1.622   3.398   6.390
  178DIO     F5 9934   1.685   3.334   6.289
  178DIO    C16 9935   1.492   3.349   6.429
  178DIO    C17 9936   1.416   3.415   6.535
  178DIO    C18 9937   1.485   3.516   6.615
  178DIO    C19 9938   1.616   3.564   6.576
  178DIO     F6 9939   1.679   3.646   6.663
  178DIO    C20 9940   1.275   3.372   6.569
  178DIO     O3 9941   1.205   3.311   6.460
  178DIO    C21 9942   1.162   3.405   6.362
  178DIO    C22 9943   1.073   3.511   6.426
  178DIO    C23 9944   1.154   3.575   6.539
  178DIO     O4 9945   1.198   3.475   6.631
  178DIO    C24 9946   0.940   3.455   6.481
  178DIO    C25 9947   0.849   3.386   6.378
  178DIO    C26 9948   0.811   3.474   6.261
  178DIO     H1 9949   2.531   3.499   6.560
  178DIO     H2 9950   2.490   3.558   6.123
  178DIO     H3 9951   2.313   3.351   6.201
  178DIO     H4 9952   2.062   3.332   6.224
  178DIO     H5 9953   2.063   3.645   6.529
  178DIO     H6 9954   1.453   3.260   6.381
  178DIO     H7 9955   1.442   3.552   6.707
  178DIO     H8 9956   1.285   3.294   6.645
  178DIO     H9 9957   1.248   3.451   6.314
  178DIO    H10 9958   1.109   3.350   6.284
  178DIO    H11 9959   1.050   3.589   6.351
  178DIO    H12 9960   1.092   3.647   6.594
  178DIO    H13 9961   1.240   3.630   6.499
  178DIO    H14 9962   0.960   3.384   6.562
  178DIO    H15 9963   0.884   3.537   6.526
  178DIO    H16 9964   0.897   3.294   6.342
  178DIO    H17 9965   0.758   3.354   6.430
  178DIO    H18 9966   0.767   3.568   6.294
  178DIO    H19 9967   0.897   3.496   6.198
  178DIO    H20 9968   0.737   3.422   6.198
  179DIO     F1 9969   6.806   6.810   3.006
  179DIO     C1 9970   6.729   6.768   3.108
  179DIO     C2 9971   6.585   6.781   3.097
  179DIO     C3 9972   6.496   6.738   3.208
  179DIO     C4 9973   6.561   6.680   3.327
  179DIO     C5 9974   6.706   6.667   3.335
  179DIO     F2 9975   6.761   6.609   3.443
  179DIO     C6 9976   6.789   6.710   3.225
  179DIO     F3 9977   6.923   6.699   3.234
  179DIO     C7 9978   6.349   6.752   3.200
  179DIO     C8 9979   6.272   6.816   3.309
  179DIO     C9 9980   6.128   6.829   3.301
  179DIO    C10 9981   6.055   6.771   3.190
  179DIO    C11 9982   6.128   6.714   3.078
  179DIO    C12 9983   6.272   6.703   3.084
  179DIO     F4 9984   6.337   6.645   2.981
  179DIO     O1 9985   5.923   6.808   3.177
  179DIO    C13 9986   5.828   6.718   3.128
  179DIO     O2 9987   5.827   6.593   3.116
  179DIO    C14 9988   5.699   6.782   3.100
  179DIO    C15 9989   5.633   6.870   3.199
  179DIO     F5 9990   5.696   6.901   3.314
  179DIO    C16 9991   5.502   6.929   3.176
  179DIO    C17 9992   5.426   6.896   3.056
  179DIO    C18 9993   5.495   6.824   2.950
  179DIO    C19 9994   5.627   6.767   2.972
  179DIO     F6 9995   5.689   6.714   2.865
  179DIO    C20 9996   5.286   6.948   3.036
  179DIO     O3 9997   5.216   6.974   3.158
  179DIO    C21 9998   5.172   6.855   3.223
  179DIO    C22 9999   5.083   6.772   3.131
  179DIO    C2310000   5.164   6.745   3.004
  179DIO     O410001   5.208   6.867   2.946
  179DIO    C2410002   4.951   6.842   3.096
  179DIO    C2510003   4.860   6.878   3.214
  179DIO    C2610004   4.821   6.759   3.300
  179DIO     H110005   6.542   6.823   3.007
  179DIO     H210006   6.501   6.638   3.407
  179DIO     H310007   6.324   6.859   3.394
  179DIO     H410008   6.073   6.883   3.377
  179DIO     H510009   6.073   6.675   2.993
  179DIO     H610010   5.464   6.999   3.249
  179DIO     H710011   5.452   6.816   2.851
  179DIO     H810012   5.295   7.045   2.987
  179DIO     H910013   5.259   6.797   3.256
  179DIO    H1010014   5.119   6.885   3.314
  179DIO    H1110015   5.061   6.676   3.179
  179DIO    H1210016   5.103   6.693   2.930
  179DIO    H1310017   5.250   6.681   3.026
  179DIO    H1410018   4.970   6.934   3.039
  179DIO    H1510019   4.894   6.777   3.028
  179DIO    H1610020   4.907   6.955   3.276
  179DIO    H1710021   4.768   6.924   3.174
  179DIO    H1810022   4.778   6.679   3.240
  179DIO    H1910023   4.908   6.719   3.354
  179DIO    H2010024   4.748   6.790   3.375
  180DIO     F110025   7.509   8.865   9.885
  180DIO     C110026   7.431   8.975   9.890
  180DIO     C210027   7.287   8.961   9.881
  180DIO     C310028   7.199   9.079   9.883
  180DIO     C410029   7.264   9.211   9.898
  180DIO     C510030   7.408   9.223   9.907
  180DIO     F210031   7.464   9.344   9.925
  180DIO     C610032   7.492   9.105   9.904
  180DIO     F310033   7.626   9.117   9.911
  180DIO     C710034   7.052   9.067   9.873
  180DIO     C810035   6.975   9.147   9.776
  180DIO     C910036   6.830   9.136   9.766
  180DIO    C1010037   6.758   9.051   9.859
  180DIO    C1110038   6.830   8.965   9.951
  180DIO    C1210039   6.974   8.975   9.959
  180DIO     F410040   7.039   8.898  10.048
  180DIO     O110041   6.626   9.027   9.829
  180DIO    C1310042   6.531   9.011   9.930
  180DIO     O210043   6.530   9.042  10.052
  180DIO    C1410044   6.402   8.963   9.879
  180DIO    C1510045   6.336   9.026   9.763
  180DIO     F510046   6.398   9.124   9.694
  180DIO    C1610047   6.205   8.984   9.715
  180DIO    C1710048   6.129   8.882   9.787
  180DIO    C1810049   6.198   8.807   9.891
  180DIO    C1910050   6.329   8.848   9.937
  180DIO     F610051   6.392   8.765  10.024
  180DIO    C2010052   5.988   8.846   9.745
  180DIO     O310053   5.919   8.952   9.679
  180DIO    C2110054   5.875   9.054   9.768
  180DIO    C2210055   5.786   8.996   9.878
  180DIO    C2310056   5.867   8.885   9.946
  180DIO     O410057   5.911   8.789   9.851
  180DIO    C2410058   5.653   8.938   9.824
  180DIO    C2510059   5.563   9.037   9.750
  180DIO    C2610060   5.524   9.159   9.832
  180DIO     H110061   7.245   8.861   9.872
  180DIO     H210062   7.203   9.300   9.911
  180DIO     H310063   7.027   9.213   9.707
  180DIO     H410064   6.775   9.189   9.689
  180DIO     H510065   6.776   8.898  10.016
  180DIO     H610066   6.167   9.029   9.624
  180DIO     H710067   6.155   8.717   9.932
  180DIO     H810068   5.998   8.767   9.670
  180DIO     H910069   5.962   9.104   9.812
  180DIO    H1010070   5.822   9.129   9.710
  180DIO    H1110071   5.764   9.074   9.951
  180DIO    H1210072   5.806   8.833  10.021
  180DIO    H1310073   5.953   8.927  10.000
  180DIO    H1410074   5.673   8.854   9.757
  180DIO    H1510075   5.597   8.897   9.908
  180DIO    H1610076   5.610   9.069   9.656
  180DIO    H1710077   5.471   8.984   9.721
  180DIO    H1810078   5.480   9.129   9.928
  180DIO    H1910079   5.611   9.223   9.852
  180DIO    H2010080   5.451   9.219   9.778
  181DIO     F110081   5.958   8.645   8.000
  181DIO     C110082   5.881   8.625   7.892
  181DIO     C210083   5.737   8.620   7.908
  181DIO     C310084   5.648   8.596   7.792
  181DIO     C410085   5.713   8.581   7.659
  181DIO     C510086   5.858   8.587   7.646
  181DIO     F210087   5.913   8.578   7.524
  181DIO     C610088   5.941   8.610   7.762
  181DIO     F310089   6.075   8.614   7.748
  181DIO     C710090   5.502   8.589   7.806
  181DIO     C810091   5.424   8.476   7.748
  181DIO     C910092   5.280   8.469   7.762
  181DIO    C1010093   5.207   8.578   7.824
  181DIO    C1110094   5.280   8.687   7.888
  181DIO    C1210095   5.424   8.692   7.877
  181DIO     F410096   5.489   8.797   7.932
  181DIO     O110097   5.075   8.554   7.855
  181DIO    C1310098   4.980   8.656   7.848
  181DIO     O210099   4.980   8.768   7.791
  181DIO    C1410100   4.851   8.617   7.906
  181DIO    C1510101   4.785   8.490   7.870
  181DIO     F510102   4.848   8.401   7.790
  181DIO    C1610103   4.654   8.453   7.921
  181DIO    C1710104   4.578   8.545   8.005
  181DIO    C1810105   4.647   8.663   8.055
  181DIO    C1910106   4.779   8.699   8.005
  181DIO     F610107   4.841   8.802   8.067
  181DIO    C2010108   4.438   8.513   8.049
  181DIO     O310109   4.368   8.424   7.961
  181DIO    C2110110   4.324   8.489   7.842
  181DIO    C2210111   4.235   8.609   7.874
  181DIO    C2310112   4.316   8.700   7.966
  181DIO     O410113   4.360   8.629   8.082
  181DIO    C2410114   4.103   8.569   7.942
  181DIO    C2510115   4.012   8.475   7.862
  181DIO    C2610116   3.974   8.528   7.725
  181DIO     H110117   5.694   8.633   8.006
  181DIO     H210118   5.653   8.573   7.570
  181DIO     H310119   5.476   8.394   7.700
  181DIO     H410120   5.225   8.383   7.727
  181DIO     H510121   5.225   8.765   7.939
  181DIO     H610122   4.616   8.354   7.898
  181DIO     H710123   4.604   8.723   8.134
  181DIO     H810124   4.447   8.457   8.143
  181DIO     H910125   4.411   8.521   7.783
  181DIO    H1010126   4.272   8.415   7.781
  181DIO    H1110127   4.213   8.663   7.782
  181DIO    H1210128   4.255   8.784   8.001
  181DIO    H1310129   4.402   8.743   7.914
  181DIO    H1410130   4.123   8.522   8.039
  181DIO    H1510131   4.046   8.661   7.964
  181DIO    H1610132   4.059   8.377   7.851
  181DIO    H1710133   3.920   8.458   7.920
  181DIO    H1810134   3.930   8.628   7.733
  181DIO    H1910135   4.060   8.533   7.658
  181DIO    H2010136   3.900   8.462   7.678
  182DIO     F110137   8.908   6.764   9.241
  182DIO     C110138   8.830   6.787   9.133
  182DIO     C210139   8.686   6.775   9.146
  182DIO     C310140   8.598   6.797   9.029
  182DIO     C410141   8.663   6.833   8.901
  182DIO     C510142   8.807   6.844   8.891
  182DIO     F210143   8.863   6.881   8.774
  182DIO     C610144   8.891   6.821   9.007
  182DIO     F310145   9.025   6.831   8.996
  182DIO     C710146   8.451   6.785   9.040
  182DIO     C810147   8.374   6.702   8.944
  182DIO     C910148   8.229   6.690   8.954
  182DIO    C1010149   8.157   6.769   9.053
  182DIO    C1110150   8.229   6.845   9.153
  182DIO    C1210151   8.373   6.854   9.144
  182DIO     F410152   8.438   6.930   9.235
  182DIO     O110153   8.025   6.735   9.072
  182DIO    C1310154   7.930   6.832   9.104
  182DIO     O210155   7.929   6.957   9.093
  182DIO    C1410156   7.801   6.774   9.143
  182DIO    C1510157   7.735   6.669   9.062
  182DIO     F510158   7.797   6.617   8.955
  182DIO    C1610159   7.604   6.616   9.095
  182DIO    C1710160   7.528   6.670   9.208
  182DIO    C1810161   7.597   6.761   9.299
  182DIO    C1910162   7.728   6.813   9.266
  182DIO     F610163   7.791   6.885   9.362
  182DIO    C2010164   7.387   6.623   9.237
  182DIO     O310165   7.318   6.575   9.122
  182DIO    C2110166   7.274   6.679   9.036
  182DIO    C2210167   7.185   6.778   9.111
  182DIO    C2310168   7.266   6.828   9.230
  182DIO     O410169   7.310   6.719   9.311
  182DIO    C2410170   7.052   6.716   9.159
  182DIO    C2510171   6.962   6.658   9.049
  182DIO    C2610172   6.923   6.759   8.942
  182DIO     H110173   8.644   6.751   9.242
  182DIO     H210174   8.602   6.859   8.815
  182DIO     H310175   8.426   6.645   8.869
  182DIO     H410176   8.174   6.623   8.890
  182DIO     H510177   8.175   6.899   9.229
  182DIO     H610178   7.566   6.533   9.037
  182DIO     H710179   7.554   6.786   9.395
  182DIO     H810180   7.397   6.536   9.303
  182DIO     H910181   7.361   6.731   8.993
  182DIO    H1010182   7.221   6.634   8.952
  182DIO    H1110183   7.163   6.863   9.046
  182DIO    H1210184   7.205   6.893   9.294
  182DIO    H1310185   7.352   6.887   9.198
  182DIO    H1410186   7.072   6.636   9.231
  182DIO    H1510187   6.996   6.792   9.213
  182DIO    H1610188   7.009   6.572   9.002
  182DIO    H1710189   6.870   6.621   9.097
  182DIO    H1810190   6.879   6.849   8.987
  182DIO    H1910191   7.010   6.789   8.882
  182DIO    H2010192   6.850   6.716   8.874
  183DIO     F110193   9.955   0.560   8.348
  183DIO     C110194   9.877   0.592   8.453
  183DIO     C210195   9.733   0.596   8.437
  183DIO     C310196   9.644   0.632   8.550
  183DIO     C410197   9.710   0.661   8.679
  183DIO     C510198   9.854   0.656   8.693
  183DIO     F210199   9.910   0.679   8.814
  183DIO     C610200   9.938   0.621   8.581
  183DIO     F310201  10.072   0.618   8.595
  183DIO     C710202   9.498   0.638   8.535
  183DIO     C810203   9.421   0.756   8.580
  183DIO     C910204   9.276   0.761   8.565
  183DIO    C1010205   9.204   0.646   8.516
  183DIO    C1110206   9.276   0.531   8.464
  183DIO    C1210207   9.420   0.527   8.476
  183DIO     F410208   9.485   0.417   8.432
  183DIO     O110209   9.071   0.667   8.482
  183DIO    C1310210   8.977   0.566   8.500
  183DIO     O210211   8.976   0.461   8.569
  183DIO    C1410212   8.848   0.598   8.438
  183DIO    C1510213   8.781   0.729   8.460
  183DIO     F510214   8.844   0.826   8.530
  183DIO    C1610215   8.651   0.760   8.406
  183DIO    C1710216   8.575   0.660   8.332
  183DIO    C1810217   8.644   0.536   8.295
  183DIO    C1910218   8.775   0.506   8.348
  183DIO     F610219   8.838   0.397   8.298
  183DIO    C2010220   8.434   0.687   8.285
  183DIO     O310221   8.364   0.784   8.363
  183DIO    C2110222   8.321   0.733   8.488
  183DIO    C2210223   8.232   0.610   8.469
  183DIO    C2310224   8.313   0.510   8.387
  183DIO     O410225   8.357   0.568   8.265
  183DIO    C2410226   8.099   0.642   8.397
  183DIO    C2510227   8.008   0.744   8.466
  183DIO    C2610228   7.970   0.706   8.608
  183DIO     H110229   9.691   0.572   8.340
  183DIO     H210230   9.649   0.678   8.768
  183DIO     H310231   9.472   0.842   8.619
  183DIO     H410232   9.221   0.851   8.590
  183DIO     H510233   9.222   0.448   8.422
  183DIO     H610234   8.613   0.861   8.418
  183DIO     H710235   8.601   0.468   8.223
  183DIO     H810236   8.444   0.732   8.185
  183DIO     H910237   8.407   0.708   8.550
  183DIO    H1010238   8.268   0.813   8.541
  183DIO    H1110239   8.209   0.566   8.567
  183DIO    H1210240   8.252   0.422   8.362
  183DIO    H1310241   8.399   0.473   8.444
  183DIO    H1410242   8.119   0.679   8.295
  183DIO    H1510243   8.043   0.549   8.385
  183DIO    H1610244   8.056   0.843   8.467
  183DIO    H1710245   7.917   0.755   8.407
  183DIO    H1810246   7.926   0.606   8.612
  183DIO    H1910247   8.057   0.708   8.675
  183DIO    H2010248   7.896   0.777   8.648
  184DIO     F110249   5.038   3.920   5.277
  184DIO     C110250   4.960   3.886   5.172
  184DIO     C210251   4.816   3.883   5.189
  184DIO     C310252   4.727   3.844   5.077
  184DIO     C410253   4.793   3.812   4.948
  184DIO     C510254   4.937   3.817   4.934
  184DIO     F210255   4.993   3.791   4.814
  184DIO     C610256   5.021   3.854   5.045
  184DIO     F310257   5.155   3.857   5.031
  184DIO     C710258   4.581   3.839   5.092
  184DIO     C810259   4.504   3.720   5.050
  184DIO     C910260   4.359   3.714   5.064
  184DIO    C1010261   4.287   3.831   5.111
  184DIO    C1110262   4.359   3.947   5.160
  184DIO    C1210263   4.503   3.951   5.148
  184DIO     F410264   4.568   4.061   5.190
  184DIO     O110265   4.154   3.811   5.145
  184DIO    C1310266   4.060   3.911   5.125
  184DIO     O210267   4.059   4.015   5.053
  184DIO    C1410268   3.931   3.880   5.187
  184DIO    C1510269   3.865   3.749   5.168
  184DIO     F510270   3.927   3.651   5.101
  184DIO    C1610271   3.734   3.719   5.224
  184DIO    C1710272   3.658   3.821   5.295
  184DIO    C1810273   3.727   3.945   5.329
  184DIO    C1910274   3.858   3.975   5.275
  184DIO     F610275   3.921   4.084   5.323
  184DIO    C2010276   3.517   3.795   5.343
  184DIO     O310277   3.448   3.696   5.267
  184DIO    C2110278   3.404   3.745   5.140
  184DIO    C2210279   3.315   3.868   5.157
  184DIO    C2310280   3.396   3.970   5.237
  184DIO     O410281   3.440   3.915   5.360
  184DIO    C2410282   3.182   3.837   5.230
  184DIO    C2510283   3.092   3.733   5.163
  184DIO    C2610284   3.053   3.769   5.020
  184DIO     H110285   4.774   3.909   5.285
  184DIO     H210286   4.732   3.793   4.860
  184DIO     H310287   4.555   3.632   5.012
  184DIO     H410288   4.304   3.624   5.041
  184DIO     H510289   4.305   4.031   5.200
  184DIO     H610290   3.696   3.618   5.214
  184DIO     H710291   3.684   4.015   5.400
  184DIO     H810292   3.527   3.752   5.444
  184DIO     H910293   3.491   3.768   5.078
  184DIO    H1010294   3.351   3.664   5.090
  184DIO    H1110295   3.292   3.910   5.058
  184DIO    H1210296   3.335   4.058   5.260
  184DIO    H1310297   3.482   4.006   5.179
  184DIO    H1410298   3.202   3.803   5.332
  184DIO    H1510299   3.126   3.931   5.239
  184DIO    H1610300   3.139   3.635   5.164
  184DIO    H1710301   3.000   3.724   5.222
  184DIO    H1810302   3.009   3.869   5.014
  184DIO    H1910303   3.140   3.765   4.953
  184DIO    H2010304   2.979   3.697   4.982
  185DIO     F110305   7.705   6.965   5.658
  185DIO     C110306   7.627   6.976   5.767
  185DIO     C210307   7.483   6.983   5.752
  185DIO     C310308   7.394   6.998   5.869
  185DIO     C410309   7.460   7.003   6.002
  185DIO     C510310   7.604   6.996   6.015
  185DIO     F210311   7.660   6.997   6.138
  185DIO     C610312   7.688   6.982   5.898
  185DIO     F310313   7.822   6.977   5.911
  185DIO     C710314   7.248   7.007   5.856
  185DIO     C810315   7.171   7.115   5.921
  185DIO     C910316   7.026   7.123   5.908
  185DIO    C1010317   6.954   7.018   5.838
  185DIO    C1110318   7.026   6.915   5.766
  185DIO    C1210319   7.170   6.909   5.777
  185DIO     F410320   7.235   6.809   5.714
  185DIO     O110321   6.821   7.045   5.809
  185DIO    C1310322   6.727   6.943   5.809
  185DIO     O210323   6.726   6.826   5.857
  185DIO    C1410324   6.598   6.986   5.754
  185DIO    C1510325   6.532   7.110   5.799
  185DIO     F510326   6.594   7.192   5.885
  185DIO    C1610327   6.401   7.151   5.751
  185DIO    C1710328   6.325   7.065   5.660
  185DIO    C1810329   6.394   6.951   5.601
  185DIO    C1910330   6.525   6.911   5.648
  185DIO     F610331   6.588   6.813   5.579
  185DIO    C2010332   6.184   7.100   5.618
  185DIO     O310333   6.115   7.182   5.713
  185DIO    C2110334   6.071   7.108   5.827
  185DIO    C2210335   5.982   6.992   5.786
  185DIO    C2310336   6.063   6.908   5.687
  185DIO     O410337   6.107   6.987   5.577
  185DIO    C2410338   5.849   7.036   5.721
  185DIO    C2510339   5.759   7.124   5.808
  185DIO    C2610340   5.720   7.061   5.941
  185DIO     H110341   7.441   6.978   5.652
  185DIO     H210342   7.399   7.004   6.092
  185DIO     H310343   7.222   7.193   5.976
  185DIO     H410344   6.971   7.206   5.949
  185DIO     H510345   6.972   6.841   5.710
  185DIO     H610346   6.363   7.247   5.781
  185DIO     H710347   6.351   6.897   5.518
  185DIO     H810348   6.194   7.163   5.529
  185DIO     H910349   6.158   7.073   5.884
  185DIO    H1010350   6.018   7.178   5.893
  185DIO    H1110351   5.959   6.930   5.874
  185DIO    H1210352   6.002   6.826   5.647
  185DIO    H1310353   6.149   6.861   5.736
  185DIO    H1410354   5.869   7.091   5.628
  185DIO    H1510355   5.793   6.947   5.693
  185DIO    H1610356   5.806   7.221   5.826
  185DIO    H1710357   5.667   7.145   5.751
  185DIO    H1810358   5.676   6.962   5.926
  185DIO    H1910359   5.807   7.051   6.007
  185DIO    H2010360   5.646   7.123   5.992
  186DIO     F110361   8.412   8.545   4.880
  186DIO     C110362   8.334   8.435   4.867
  186DIO     C210363   8.190   8.449   4.878
  186DIO     C310364   8.102   8.331   4.867
  186DIO     C410365   8.167   8.200   4.843
  186DIO     C510366   8.311   8.189   4.833
  186DIO     F210367   8.367   8.069   4.807
  186DIO     C610368   8.395   8.306   4.845
  186DIO     F310369   8.529   8.295   4.837
  186DIO     C710370   7.955   8.342   4.878
  186DIO     C810371   7.878   8.255   4.969
  186DIO     C910372   7.733   8.266   4.980
  186DIO    C1010373   7.661   8.357   4.893
  186DIO    C1110374   7.733   8.449   4.808
  186DIO    C1210375   7.877   8.440   4.799
  186DIO     F410376   7.942   8.523   4.715
  186DIO     O110377   7.529   8.379   4.925
  186DIO    C1310378   7.434   8.402   4.825
  186DIO     O210379   7.433   8.380   4.702
  186DIO    C1410380   7.305   8.446   4.879
  186DIO    C1510381   7.239   8.376   4.991
  186DIO     F510382   7.301   8.273   5.053
  186DIO    C1610383   7.108   8.414   5.041
  186DIO    C1710384   7.032   8.520   4.977
  186DIO    C1810385   7.101   8.603   4.878
  186DIO    C1910386   7.232   8.565   4.829
  186DIO     F610387   7.295   8.654   4.749
  186DIO    C2010388   6.891   8.554   5.021
  186DIO     O310389   6.822   8.443   5.080
  186DIO    C2110390   6.778   8.348   4.983
  186DIO    C2210391   6.689   8.414   4.878
  186DIO    C2310392   6.770   8.528   4.818
  186DIO     O410393   6.814   8.618   4.919
  186DIO    C2410394   6.556   8.467   4.936
  186DIO    C2510395   6.466   8.364   5.003
  186DIO    C2610396   6.427   8.248   4.912
  186DIO     H110397   8.148   8.547   4.893
  186DIO     H210398   8.106   8.112   4.825
  186DIO     H310399   7.930   8.185   5.034
  186DIO     H410400   7.678   8.208   5.053
  186DIO     H510401   7.679   8.520   4.747
  186DIO     H610402   7.070   8.363   5.129
  186DIO     H710403   7.058   8.696   4.844
  186DIO     H810404   6.901   8.628   5.101
  186DIO     H910405   6.865   8.301   4.936
  186DIO    H1010406   6.725   8.269   5.037
  186DIO    H1110407   6.667   8.341   4.799
  186DIO    H1210408   6.709   8.585   4.747
  186DIO    H1310409   6.856   8.490   4.761
  186DIO    H1410410   6.576   8.547   5.009
  186DIO    H1510411   6.500   8.514   4.854
  186DIO    H1610412   6.513   8.325   5.094
  186DIO    H1710413   6.374   8.414   5.036
  186DIO    H1810414   6.383   8.284   4.819
  186DIO    H1910415   6.514   8.185   4.888
  186DIO    H2010416   6.354   8.184   4.962
  187DIO     F110417   7.410   3.880   3.444
  187DIO     C110418   7.333   3.770   3.441
  187DIO     C210419   7.188   3.785   3.450
  187DIO     C310420   7.100   3.666   3.449
  187DIO     C410421   7.165   3.534   3.436
  187DIO     C510422   7.309   3.522   3.427
  187DIO     F210423   7.365   3.401   3.411
  187DIO     C610424   7.393   3.640   3.429
  187DIO     F310425   7.527   3.628   3.421
  187DIO     C710426   6.953   3.679   3.459
  187DIO     C810427   6.876   3.599   3.557
  187DIO     C910428   6.731   3.611   3.567
  187DIO    C1010429   6.659   3.694   3.473
  187DIO    C1110430   6.731   3.779   3.380
  187DIO    C1210431   6.875   3.770   3.372
  187DIO     F410432   6.940   3.846   3.282
  187DIO     O110433   6.527   3.719   3.503
  187DIO    C1310434   6.432   3.734   3.402
  187DIO     O210435   6.431   3.701   3.280
  187DIO    C1410436   6.303   3.782   3.452
  187DIO    C1510437   6.237   3.721   3.569
  187DIO     F510438   6.299   3.624   3.639
  187DIO    C1610439   6.106   3.763   3.616
  187DIO    C1710440   6.030   3.864   3.543
  187DIO    C1810441   6.099   3.938   3.438
  187DIO    C1910442   6.231   3.897   3.392
  187DIO     F610443   6.293   3.979   3.304
  187DIO    C2010444   5.889   3.901   3.584
  187DIO     O310445   5.820   3.796   3.652
  187DIO    C2110446   5.776   3.693   3.563
  187DIO    C2210447   5.687   3.750   3.453
  187DIO    C2310448   5.768   3.859   3.383
  187DIO     O410449   5.812   3.957   3.477
  187DIO    C2410450   5.554   3.808   3.506
  187DIO    C2510451   5.464   3.710   3.582
  187DIO    C2610452   5.425   3.587   3.501
  187DIO     H110453   7.146   3.884   3.457
  187DIO     H210454   7.105   3.445   3.424
  187DIO     H310455   6.928   3.535   3.627
  187DIO     H410456   6.676   3.559   3.644
  187DIO     H510457   6.677   3.845   3.314
  187DIO     H610458   6.068   3.720   3.707
  187DIO     H710459   6.056   4.028   3.396
  187DIO     H810460   5.899   3.981   3.658
  187DIO     H910461   5.863   3.642   3.520
  187DIO    H1010462   5.723   3.618   3.623
  187DIO    H1110463   5.665   3.671   3.381
  187DIO    H1210464   5.707   3.910   3.308
  187DIO    H1310465   5.854   3.816   3.331
  187DIO    H1410466   5.574   3.893   3.573
  187DIO    H1510467   5.498   3.848   3.421
  187DIO    H1610468   5.511   3.679   3.675
  187DIO    H1710469   5.372   3.763   3.610
  187DIO    H1810470   5.381   3.615   3.405
  187DIO    H1910471   5.512   3.523   3.482
  187DIO    H2010472   5.352   3.528   3.556
  188DIO     F110473   2.282   5.999   3.162
  188DIO     C110474   2.205   5.896   3.200
  188DIO     C210475   2.061   5.912   3.203
  188DIO     C310476   1.972   5.803   3.247
  188DIO     C410477   2.037   5.675   3.286
  188DIO     C510478   2.182   5.661   3.282
  188DIO     F210479   2.237   5.542   3.313
  188DIO     C610480   2.265   5.771   3.239
  188DIO     F310481   2.399   5.756   3.237
  188DIO     C710482   1.826   5.818   3.252
  188DIO     C810483   1.748   5.782   3.373
  188DIO     C910484   1.604   5.796   3.378
  188DIO    C1010485   1.531   5.837   3.259
  188DIO    C1110486   1.604   5.881   3.141
  188DIO    C1210487   1.748   5.869   3.137
  188DIO     F410488   1.813   5.905   3.025
  188DIO     O110489   1.399   5.872   3.277
  188DIO    C1310490   1.304   5.847   3.178
  188DIO     O210491   1.304   5.771   3.078
  188DIO    C1410492   1.175   5.911   3.206
  188DIO    C1510493   1.109   5.899   3.338
  188DIO     F510494   1.172   5.836   3.439
  188DIO    C1610495   0.978   5.955   3.365
  188DIO    C1710496   0.902   6.021   3.259
  188DIO    C1810497   0.971   6.050   3.134
  188DIO    C1910498   1.103   5.994   3.107
  188DIO     F610499   1.165   6.036   2.995
  188DIO    C2010500   0.762   6.071   3.283
  188DIO     O310501   0.692   6.000   3.386
  188DIO    C2110502   0.648   5.871   3.343
  188DIO    C2210503   0.559   5.881   3.220
  188DIO    C2310504   0.640   5.956   3.114
  188DIO     O410505   0.684   6.082   3.163
  188DIO    C2410506   0.427   5.956   3.247
  188DIO    C2510507   0.336   5.894   3.354
  188DIO    C2610508   0.298   5.749   3.326
  188DIO     H110509   2.018   6.007   3.173
  188DIO     H210510   1.977   5.588   3.309
  188DIO     H310511   1.800   5.748   3.462
  188DIO     H410512   1.549   5.778   3.469
  188DIO     H510513   1.549   5.917   3.055
  188DIO     H610514   0.940   5.951   3.466
  188DIO     H710515   0.928   6.117   3.061
  188DIO     H810516   0.771   6.173   3.321
  188DIO     H910517   0.735   5.807   3.323
  188DIO    H1010518   0.596   5.824   3.427
  188DIO    H1110519   0.537   5.781   3.183
  188DIO    H1210520   0.579   5.974   3.025
  188DIO    H1310521   0.726   5.896   3.081
  188DIO    H1410522   0.447   6.060   3.276
  188DIO    H1510523   0.370   5.960   3.153
  188DIO    H1610524   0.383   5.900   3.452
  188DIO    H1710525   0.244   5.954   3.360
  188DIO    H1810526   0.254   5.739   3.226
  188DIO    H1910527   0.384   5.683   3.333
  188DIO    H2010528   0.224   5.715   3.399
  189DIO     F110529   9.400   8.216   1.828
  189DIO     C110530   9.323   8.306   1.891
  189DIO     C210531   9.178   8.299   1.876
  189DIO     C310532   9.090   8.397   1.942
  189DIO     C410533   9.155   8.500   2.027
  189DIO     C510534   9.299   8.504   2.040
  189DIO     F210535   9.355   8.597   2.121
  189DIO     C610536   9.383   8.408   1.974
  189DIO     F310537   9.517   8.414   1.986
  189DIO     C710538   8.943   8.392   1.927
  189DIO     C810539   8.866   8.513   1.889
  189DIO     C910540   8.721   8.508   1.875
  189DIO    C1010541   8.649   8.387   1.907
  189DIO    C1110542   8.721   8.265   1.937
  189DIO    C1210543   8.865   8.269   1.949
  189DIO     F410544   8.930   8.155   1.982
  189DIO     O110545   8.517   8.383   1.868
  189DIO    C1310546   8.422   8.314   1.944
  189DIO     O210547   8.421   8.274   2.063
  189DIO    C1410548   8.293   8.302   1.876
  189DIO    C1510549   8.227   8.418   1.812
  189DIO     F510550   8.289   8.537   1.807
  189DIO    C1610551   8.096   8.409   1.750
  189DIO    C1710552   8.020   8.284   1.754
  189DIO    C1810553   8.089   8.165   1.801
  189DIO    C1910554   8.221   8.173   1.862
  189DIO     F610555   8.283   8.057   1.889
  189DIO    C2010556   7.879   8.276   1.700
  189DIO     O310557   7.810   8.401   1.702
  189DIO    C2110558   7.766   8.438   1.832
  189DIO    C2210559   7.677   8.330   1.892
  189DIO    C2310560   7.758   8.200   1.890
  189DIO     O410561   7.802   8.171   1.758
  189DIO    C2410562   7.544   8.311   1.816
  189DIO    C2510563   7.454   8.434   1.807
  189DIO    C2610564   7.415   8.492   1.943
  189DIO     H110565   9.136   8.220   1.814
  189DIO     H210566   9.095   8.568   2.085
  189DIO     H310567   8.918   8.605   1.867
  189DIO     H410568   8.666   8.594   1.839
  189DIO     H510569   8.667   8.173   1.955
  189DIO     H610570   8.058   8.496   1.697
  189DIO     H710571   8.046   8.066   1.786
  189DIO     H810572   7.889   8.250   1.594
  189DIO     H910573   7.853   8.457   1.896
  189DIO    H1010574   7.713   8.534   1.824
  189DIO    H1110575   7.655   8.355   1.997
  189DIO    H1210576   7.697   8.116   1.924
  189DIO    H1310577   7.844   8.206   1.958
  189DIO    H1410578   7.564   8.277   1.713
  189DIO    H1510579   7.488   8.230   1.864
  189DIO    H1610580   7.501   8.512   1.747
  189DIO    H1710581   7.362   8.406   1.754
  189DIO    H1810582   7.371   8.415   2.007
  189DIO    H1910583   7.502   8.535   1.994
  189DIO    H2010584   7.342   8.571   1.930
  190DIO     F110585   7.785   3.933   6.805
  190DIO     C110586   7.707   3.998   6.717
  190DIO     C210587   7.563   3.983   6.724
  190DIO     C310588   7.475   4.052   6.627
  190DIO     C410589   7.540   4.139   6.527
  190DIO     C510590   7.684   4.152   6.522
  190DIO     F210591   7.740   4.236   6.432
  190DIO     C610592   7.768   4.083   6.617
  190DIO     F310593   7.902   4.096   6.611
  190DIO     C710594   7.328   4.036   6.631
  190DIO     C810595   7.251   4.002   6.510
  190DIO     C910596   7.106   3.987   6.514
  190DIO    C1010597   7.034   4.016   6.636
  190DIO    C1110598   7.106   4.043   6.759
  190DIO    C1210599   7.250   4.055   6.756
  190DIO     F410600   7.315   4.085   6.870
  190DIO     O110601   6.902   3.977   6.639
  190DIO    C1310602   6.807   4.051   6.710
  190DIO     O210603   6.806   4.170   6.753
  190DIO    C1410604   6.678   3.983   6.721
  190DIO    C1510605   6.612   3.922   6.603
  190DIO     F510606   6.674   3.920   6.483
  190DIO    C1610607   6.481   3.860   6.610
  190DIO    C1710608   6.405   3.861   6.735
  190DIO    C1810609   6.474   3.904   6.856
  190DIO    C1910610   6.605   3.966   6.848
  190DIO     F610611   6.668   3.990   6.966
  190DIO    C2010612   6.264   3.806   6.742
  190DIO     O310613   6.195   3.811   6.617
  190DIO    C2110614   6.151   3.942   6.583
  190DIO    C2210615   6.062   4.000   6.693
  190DIO    C2310616   6.143   3.994   6.822
  190DIO     O410617   6.187   3.862   6.849
  190DIO    C2410618   5.929   3.923   6.710
  190DIO    C2510619   5.839   3.918   6.587
  190DIO    C2610620   5.800   4.055   6.533
  190DIO     H110621   7.521   3.919   6.800
  190DIO     H210622   7.479   4.199   6.460
  190DIO     H310623   7.303   3.982   6.417
  190DIO     H410624   7.051   3.954   6.427
  190DIO     H510625   7.052   4.059   6.851
  190DIO     H610626   6.443   3.809   6.522
  190DIO     H710627   6.431   3.887   6.954
  190DIO     H810628   6.274   3.700   6.765
  190DIO     H910629   6.238   4.007   6.566
  190DIO    H1010630   6.098   3.937   6.488
  190DIO    H1110631   6.040   4.105   6.670
  190DIO    H1210632   6.082   4.026   6.907
  190DIO    H1310633   6.229   4.062   6.818
  190DIO    H1410634   5.949   3.820   6.742
  190DIO    H1510635   5.873   3.970   6.792
  190DIO    H1610636   5.886   3.859   6.507
  190DIO    H1710637   5.747   3.864   6.614
  190DIO    H1810638   5.756   4.117   6.611
  190DIO    H1910639   5.887   4.107   6.491
  190DIO    H2010640   5.727   4.044   6.452
  191DIO     F110641   8.046   7.780   4.226
  191DIO     C110642   7.969   7.713   4.313
  191DIO     C210643   7.825   7.728   4.307
  191DIO     C310644   7.736   7.658   4.402
  191DIO     C410645   7.801   7.570   4.502
  191DIO     C510646   7.946   7.556   4.506
  191DIO     F210647   8.001   7.472   4.596
  191DIO     C610648   8.029   7.627   4.412
  191DIO     F310649   8.163   7.614   4.418
  191DIO     C710650   7.590   7.674   4.398
  191DIO     C810651   7.512   7.707   4.520
  191DIO     C910652   7.368   7.722   4.516
  191DIO    C1010653   7.295   7.694   4.394
  191DIO    C1110654   7.368   7.669   4.270
  191DIO    C1210655   7.512   7.657   4.274
  191DIO     F410656   7.577   7.628   4.159
  191DIO     O110657   7.163   7.733   4.391
  191DIO    C1310658   7.068   7.660   4.320
  191DIO     O210659   7.068   7.542   4.275
  191DIO    C1410660   6.939   7.729   4.310
  191DIO    C1510661   6.873   7.788   4.428
  191DIO     F510662   6.936   7.788   4.548
  191DIO    C1610663   6.742   7.850   4.422
  191DIO    C1710664   6.666   7.851   4.297
  191DIO    C1810665   6.735   7.808   4.175
  191DIO    C1910666   6.867   7.747   4.182
  191DIO     F610667   6.929   7.724   4.065
  191DIO    C2010668   6.526   7.905   4.291
  191DIO     O310669   6.456   7.899   4.416
  191DIO    C2110670   6.412   7.767   4.448
  191DIO    C2210671   6.323   7.711   4.337
  191DIO    C2310672   6.404   7.718   4.208
  191DIO     O410673   6.448   7.851   4.183
  191DIO    C2410674   6.191   7.788   4.321
  191DIO    C2510675   6.100   7.792   4.445
  191DIO    C2610676   6.062   7.654   4.497
  191DIO     H110677   7.782   7.793   4.231
  191DIO     H210678   7.741   7.509   4.568
  191DIO     H310679   7.564   7.726   4.613
  191DIO     H410680   7.313   7.754   4.603
  191DIO     H510681   7.313   7.654   4.178
  191DIO     H610682   6.704   7.900   4.510
  191DIO     H710683   6.692   7.827   4.078
  191DIO     H810684   6.535   8.012   4.269
  191DIO     H910685   6.499   7.702   4.464
  191DIO    H1010686   6.360   7.772   4.543
  191DIO    H1110687   6.301   7.606   4.359
  191DIO    H1210688   6.343   7.687   4.122
  191DIO    H1310689   6.490   7.650   4.212
  191DIO    H1410690   6.211   7.892   4.291
  191DIO    H1510691   6.134   7.743   4.239
  191DIO    H1610692   6.147   7.850   4.525
  191DIO    H1710693   6.008   7.846   4.418
  191DIO    H1810694   6.018   7.593   4.418
  191DIO    H1910695   6.148   7.602   4.538
  191DIO    H2010696   5.988   7.664   4.577
  192DIO     F110697   3.315   9.813   2.033
  192DIO     C110698   3.237   9.765   1.934
  192DIO     C210699   3.093   9.764   1.951
  192DIO     C310700   3.004   9.710   1.845
  192DIO     C410701   3.070   9.661   1.722
  192DIO     C510702   3.214   9.663   1.707
  192DIO     F210703   3.269   9.621   1.592
  192DIO     C610704   3.298   9.716   1.813
  192DIO     F310705   3.432   9.717   1.798
  192DIO     C710706   2.858   9.707   1.861
  192DIO     C810707   2.781   9.583   1.835
  192DIO     C910708   2.636   9.580   1.850
  192DIO    C1010709   2.563   9.702   1.881
  192DIO    C1110710   2.636   9.823   1.914
  192DIO    C1210711   2.780   9.825   1.902
  192DIO     F410712   2.845   9.941   1.927
  192DIO     O110713   2.431   9.686   1.917
  192DIO    C1310714   2.337   9.783   1.884
  192DIO     O210715   2.336   9.876   1.799
  192DIO    C1410716   2.208   9.761   1.950
  192DIO    C1510717   2.141   9.629   1.949
  192DIO     F510718   2.204   9.522   1.895
  192DIO    C1610719   2.011   9.606   2.008
  192DIO    C1710720   1.935   9.717   2.064
  192DIO    C1810721   2.004   9.845   2.081
  192DIO    C1910722   2.135   9.866   2.024
  192DIO     F610723   2.198   9.982   2.056
  192DIO    C2010724   1.794   9.698   2.116
  192DIO     O310725   1.724   9.590   2.054
  192DIO    C2110726   1.681   9.620   1.922
  192DIO    C2210727   1.592   9.744   1.921
  192DIO    C2310728   1.673   9.857   1.986
  192DIO     O410729   1.717   9.819   2.116
  192DIO    C2410730   1.459   9.724   1.998
  192DIO    C2510731   1.368   9.612   1.945
  192DIO    C2610732   1.330   9.627   1.799
  192DIO     H110733   3.050   9.803   2.043
  192DIO     H210734   3.009   9.630   1.637
  192DIO     H310735   2.832   9.491   1.810
  192DIO     H410736   2.581   9.487   1.840
  192DIO     H510737   2.582   9.912   1.942
  192DIO     H610738   1.972   9.505   2.012
  192DIO     H710739   1.961   9.924   2.142
  192DIO     H810740   1.804   9.670   2.221
  192DIO     H910741   1.767   9.635   1.856
  192DIO    H1010742   1.628   9.533   1.883
  192DIO    H1110743   1.569   9.773   1.818
  192DIO    H1210744   1.611   9.947   1.997
  192DIO    H1310745   1.759   9.884   1.924
  192DIO    H1410746   1.479   9.704   2.104
  192DIO    H1510747   1.403   9.818   1.994
  192DIO    H1610748   1.416   9.515   1.961
  192DIO    H1710749   1.277   9.611   2.006
  192DIO    H1810750   1.286   9.726   1.780
  192DIO    H1910751   1.416   9.615   1.733
  192DIO    H2010752   1.256   9.551   1.771
  193DIO     F110753   4.849   6.035   2.281
  193DIO     C110754   4.772   5.980   2.377
  193DIO     C210755   4.628   5.995   2.368
  193DIO     C310756   4.539   5.939   2.472
  193DIO     C410757   4.604   5.865   2.583
  193DIO     C510758   4.749   5.851   2.589
  193DIO     F210759   4.804   5.780   2.689
  193DIO     C610760   4.832   5.908   2.486
  193DIO     F310761   4.966   5.896   2.494
  193DIO     C710762   4.392   5.953   2.466
  193DIO     C810763   4.315   6.002   2.583
  193DIO     C910764   4.171   6.017   2.577
  193DIO    C1010765   4.098   5.973   2.459
  193DIO    C1110766   4.170   5.931   2.340
  193DIO    C1210767   4.315   5.920   2.345
  193DIO     F410768   4.379   5.876   2.236
  193DIO     O110769   3.966   6.011   2.451
  193DIO    C1310770   3.871   5.929   2.390
  193DIO     O210771   3.870   5.806   2.362
  193DIO    C1410772   3.742   5.996   2.371
  193DIO    C1510773   3.676   6.070   2.481
  193DIO     F510774   3.738   6.086   2.599
  193DIO    C1610775   3.545   6.131   2.466
  193DIO    C1710776   3.469   6.115   2.342
  193DIO    C1810777   3.538   6.057   2.227
  193DIO    C1910778   3.670   5.997   2.242
  193DIO     F610779   3.732   5.958   2.129
  193DIO    C2010780   3.329   6.168   2.329
  193DIO     O310781   3.259   6.179   2.454
  193DIO    C2110782   3.215   6.052   2.503
  193DIO    C2210783   3.126   5.982   2.401
  193DIO    C2310784   3.207   5.972   2.272
  193DIO     O410785   3.251   6.100   2.229
  193DIO    C2410786   2.993   6.056   2.374
  193DIO    C2510787   2.903   6.076   2.496
  193DIO    C2610788   2.864   5.947   2.567
  193DIO     H110789   4.585   6.049   2.284
  193DIO     H210790   4.544   5.813   2.656
  193DIO     H310791   4.367   6.034   2.672
  193DIO     H410792   4.115   6.060   2.659
  193DIO     H510793   4.116   5.904   2.251
  193DIO     H610794   3.507   6.192   2.547
  193DIO     H710795   3.495   6.062   2.128
  193DIO     H810796   3.338   6.271   2.293
  193DIO     H910797   3.302   5.990   2.528
  193DIO    H1010798   3.162   6.070   2.597
  193DIO    H1110799   3.104   5.881   2.436
  193DIO    H1210800   3.146   5.929   2.191
  193DIO    H1310801   3.293   5.905   2.284
  193DIO    H1410802   3.013   6.155   2.331
  193DIO    H1510803   2.937   6.000   2.299
  193DIO    H1610804   2.950   6.144   2.568
  193DIO    H1710805   2.811   6.127   2.463
  193DIO    H1810806   2.820   5.876   2.497
  193DIO    H1910807   2.951   5.900   2.614
  193DIO    H2010808   2.791   5.968   2.645
  194DIO     F110809   6.756   6.961   1.275
  194DIO     C110810   6.678   7.068   1.301
  194DIO     C210811   6.534   7.056   1.289
  194DIO     C310812   6.445   7.172   1.315
  194DIO     C410813   6.511   7.298   1.355
  194DIO     C510814   6.655   7.308   1.366
  194DIO     F210815   6.710   7.424   1.407
  194DIO     C610816   6.739   7.193   1.340
  194DIO     F310817   6.873   7.204   1.349
  194DIO     C710818   6.299   7.162   1.302
  194DIO     C810819   6.222   7.260   1.223
  194DIO     C910820   6.077   7.250   1.211
  194DIO    C1010821   6.004   7.149   1.285
  194DIO    C1110822   6.077   7.047   1.358
  194DIO    C1210823   6.221   7.055   1.368
  194DIO     F410824   6.286   6.962   1.441
  194DIO     O110825   5.872   7.131   1.251
  194DIO    C1310826   5.778   7.096   1.347
  194DIO     O210827   5.777   7.103   1.472
  194DIO    C1410828   5.649   7.059   1.288
  194DIO    C1510829   5.582   7.143   1.186
  194DIO     F510830   5.645   7.252   1.137
  194DIO    C1610831   5.452   7.112   1.131
  194DIO    C1710832   5.376   6.998   1.181
  194DIO    C1810833   5.445   6.904   1.269
  194DIO    C1910834   5.576   6.934   1.322
  194DIO     F610835   5.639   6.836   1.391
  194DIO    C2010836   5.235   6.970   1.134
  194DIO     O310837   5.165   7.087   1.089
  194DIO    C2110838   5.122   7.169   1.197
  194DIO    C2210839   5.033   7.091   1.293
  194DIO    C2310840   5.114   6.970   1.339
  194DIO     O410841   5.158   6.893   1.227
  194DIO    C2410842   4.900   7.045   1.229
  194DIO    C2510843   4.809   7.156   1.175
  194DIO    C2610844   4.771   7.260   1.280
  194DIO     H110845   6.491   6.961   1.261
  194DIO     H210846   6.450   7.384   1.384
  194DIO     H310847   6.273   7.338   1.168
  194DIO     H410848   6.022   7.317   1.146
  194DIO     H510849   6.023   6.969   1.409
  194DIO     H610850   5.413   7.173   1.050
  194DIO     H710851   5.402   6.807   1.292
  194DIO     H810852   5.245   6.907   1.045
  194DIO     H910853   5.208   7.211   1.250
  194DIO    H1010854   5.069   7.255   1.154
  194DIO    H1110855   5.010   7.153   1.380
  194DIO    H1210856   5.052   6.904   1.402
  194DIO    H1310857   5.200   7.001   1.399
  194DIO    H1410858   4.920   6.975   1.146
  194DIO    H1510859   4.844   6.988   1.304
  194DIO    H1610860   4.857   7.206   1.090
  194DIO    H1710861   4.718   7.110   1.137
  194DIO    H1810862   4.727   7.213   1.368
  194DIO    H1910863   4.857   7.319   1.312
  194DIO    H2010864   4.697   7.329   1.239
  195DIO     F110865   9.290   7.398   2.915
  195DIO     C110866   9.212   7.292   2.887
  195DIO     C210867   9.068   7.304   2.899
  195DIO     C310868   8.980   7.189   2.872
  195DIO     C410869   9.045   7.063   2.830
  195DIO     C510870   9.189   7.053   2.819
  195DIO     F210871   9.245   6.938   2.776
  195DIO     C610872   9.273   7.167   2.847
  195DIO     F310873   9.407   7.157   2.837
  195DIO     C710874   8.833   7.199   2.885
  195DIO     C810875   8.756   7.099   2.963
  195DIO     C910876   8.611   7.108   2.975
  195DIO    C1010877   8.539   7.211   2.902
  195DIO    C1110878   8.611   7.314   2.830
  195DIO    C1210879   8.755   7.306   2.821
  195DIO     F410880   8.820   7.401   2.749
  195DIO     O110881   8.407   7.228   2.937
  195DIO    C1310882   8.312   7.265   2.841
  195DIO     O210883   8.311   7.260   2.715
  195DIO    C1410884   8.183   7.301   2.901
  195DIO    C1510885   8.117   7.215   3.001
  195DIO     F510886   8.179   7.105   3.048
  195DIO    C1610887   7.986   7.246   3.056
  195DIO    C1710888   7.910   7.361   3.008
  195DIO    C1810889   7.979   7.456   2.922
  195DIO    C1910890   8.110   7.426   2.868
  195DIO     F610891   8.173   7.525   2.801
  195DIO    C2010892   7.769   7.388   3.056
  195DIO     O310893   7.700   7.270   3.099
  195DIO    C2110894   7.656   7.189   2.990
  195DIO    C2210895   7.567   7.269   2.895
  195DIO    C2310896   7.648   7.391   2.851
  195DIO     O410897   7.692   7.466   2.964
  195DIO    C2410898   7.434   7.314   2.960
  195DIO    C2510899   7.344   7.202   3.012
  195DIO    C2610900   7.305   7.100   2.905
  195DIO     H110901   9.026   7.399   2.929
  195DIO     H210902   8.984   6.978   2.799
  195DIO     H310903   8.808   7.021   3.017
  195DIO     H410904   8.556   7.041   3.039
  195DIO     H510905   8.557   7.393   2.781
  195DIO     H610906   7.948   7.183   3.136
  195DIO     H710907   7.936   7.553   2.901
  195DIO     H810908   7.779   7.450   3.146
  195DIO     H910909   7.743   7.149   2.937
  195DIO    H1010910   7.603   7.103   3.031
  195DIO    H1110911   7.545   7.208   2.807
  195DIO    H1210912   7.587   7.458   2.789
  195DIO    H1310913   7.734   7.361   2.790
  195DIO    H1410914   7.454   7.382   3.043
  195DIO    H1510915   7.378   7.372   2.886
  195DIO    H1610916   7.391   7.151   3.096
  195DIO    H1710917   7.252   7.247   3.051
  195DIO    H1810918   7.261   7.149   2.818
  195DIO    H1910919   7.392   7.042   2.873
  195DIO    H2010920   7.232   7.030   2.946
  196DIO     F110921   2.400   1.224   4.436
  196DIO     C110922   2.322   1.150   4.354
  196DIO     C210923   2.178   1.154   4.371
  196DIO     C310924   2.089   1.072   4.285
  196DIO     C410925   2.155   0.990   4.180
  196DIO     C510926   2.299   0.988   4.166
  196DIO     F210927   2.354   0.915   4.067
  196DIO     C610928   2.383   1.068   4.252
  196DIO     F310929   2.516   1.065   4.238
  196DIO     C710930   1.943   1.073   4.301
  196DIO     C810931   1.866   0.948   4.312
  196DIO     C910932   1.721   0.949   4.327
  196DIO    C1010933   1.648   1.074   4.321
  196DIO    C1110934   1.721   1.200   4.319
  196DIO    C1210935   1.865   1.199   4.306
  196DIO     F410936   1.930   1.317   4.298
  196DIO     O110937   1.516   1.070   4.360
  196DIO    C1310938   1.422   1.153   4.301
  196DIO     O210939   1.421   1.218   4.193
  196DIO    C1410940   1.292   1.151   4.370
  196DIO    C1510941   1.226   1.024   4.407
  196DIO     F510942   1.289   0.906   4.386
  196DIO    C1610943   1.095   1.019   4.470
  196DIO    C1710944   1.020   1.142   4.493
  196DIO    C1810945   1.088   1.269   4.473
  196DIO    C1910946   1.220   1.273   4.412
  196DIO     F610947   1.282   1.393   4.410
  196DIO    C2010948   0.879   1.138   4.547
  196DIO     O310949   0.809   1.016   4.519
  196DIO    C2110950   0.765   1.008   4.384
  196DIO    C2210951   0.677   1.127   4.348
  196DIO    C2310952   0.757   1.253   4.378
  196DIO     O410953   0.802   1.253   4.514
  196DIO    C2410954   0.544   1.129   4.427
  196DIO    C2510955   0.453   1.007   4.409
  196DIO    C2610956   0.415   0.980   4.264
  196DIO     H110957   2.135   1.217   4.448
  196DIO     H210958   2.094   0.936   4.108
  196DIO     H310959   1.917   0.853   4.313
  196DIO     H410960   1.666   0.857   4.343
  196DIO     H510961   1.666   1.294   4.320
  196DIO     H610962   1.057   0.923   4.503
  196DIO     H710963   1.045   1.361   4.509
  196DIO     H810964   0.889   1.140   4.657
  196DIO     H910965   0.852   1.004   4.317
  196DIO    H1010966   0.713   0.913   4.371
  196DIO    H1110967   0.654   1.124   4.241
  196DIO    H1210968   0.696   1.342   4.363
  196DIO    H1310969   0.843   1.261   4.311
  196DIO    H1410970   0.564   1.140   4.534
  196DIO    H1510971   0.487   1.218   4.397
  196DIO    H1610972   0.500   0.918   4.451
  196DIO    H1710973   0.361   1.023   4.467
  196DIO    H1810974   0.371   1.069   4.217
  196DIO    H1910975   0.501   0.949   4.205
  196DIO    H2010976   0.341   0.899   4.259
  197DIO     F110977   2.756   5.612   4.200
  197DIO     C110978   2.679   5.713   4.245
  197DIO     C210979   2.535   5.703   4.231
  197DIO     C310980   2.446   5.813   4.276
  197DIO     C410981   2.511   5.930   4.338
  197DIO     C510982   2.656   5.938   4.351
  197DIO     F210983   2.711   6.045   4.411
  197DIO     C610984   2.739   5.830   4.305
  197DIO     F310985   2.873   5.838   4.316
  197DIO     C710986   2.299   5.805   4.262
  197DIO     C810987   2.222   5.916   4.201
  197DIO     C910988   2.078   5.908   4.188
  197DIO    C1010989   2.005   5.796   4.244
  197DIO    C1110990   2.077   5.682   4.297
  197DIO    C1210991   2.222   5.688   4.308
  197DIO     F410992   2.286   5.584   4.364
  197DIO     O110993   1.873   5.784   4.206
  197DIO    C1310994   1.778   5.732   4.295
  197DIO     O210995   1.777   5.717   4.420
  197DIO    C1410996   1.649   5.706   4.230
  197DIO    C1510997   1.583   5.807   4.144
  197DIO     F510998   1.645   5.923   4.116
  197DIO    C1610999   1.452   5.786   4.085
  197DIO    C1711000   1.376   5.665   4.115
  197DIO    C1811001   1.445   5.557   4.184
  197DIO    C1911002   1.577   5.578   4.242
  197DIO     F611003   1.639   5.469   4.293
  197DIO    C2011004   1.236   5.646   4.063
  197DIO     O311005   1.166   5.769   4.040
  197DIO    C2111006   1.122   5.831   4.160
  197DIO    C2211007   1.033   5.737   4.241
  197DIO    C2311008   1.114   5.610   4.265
  197DIO     O411009   1.158   5.554   4.141
  197DIO    C2411010   0.900   5.703   4.170
  197DIO    C2511011   0.810   5.822   4.137
  197DIO    C2611012   0.771   5.906   4.258
  197DIO     H111013   2.492   5.614   4.186
  197DIO     H211014   2.451   6.009   4.382
  197DIO     H311015   2.274   6.002   4.161
  197DIO     H411016   2.022   5.985   4.135
  197DIO     H511017   2.023   5.596   4.334
  197DIO     H611018   1.414   5.860   4.016
  197DIO     H711019   1.402   5.457   4.190
  197DIO     H811020   1.245   5.599   3.964
  197DIO     H911021   1.209   5.862   4.219
  197DIO    H1011022   1.069   5.923   4.133
  197DIO    H1111023   1.011   5.783   4.338
  197DIO    H1211024   1.053   5.534   4.315
  197DIO    H1311025   1.200   5.629   4.329
  197DIO    H1411026   0.920   5.649   4.076
  197DIO    H1511027   0.844   5.634   4.233
  197DIO    H1611028   0.857   5.886   4.061
  197DIO    H1711029   0.718   5.783   4.090
  197DIO    H1811030   0.727   5.843   4.336
  197DIO    H1911031   0.858   5.958   4.299
  197DIO    H2011032   0.698   5.981   4.229
  198DIO     F111033   4.329   5.821   7.676
  198DIO     C111034   4.252   5.918   7.625
  198DIO     C211035   4.107   5.901   7.624
  198DIO     C311036   4.019   6.005   7.566
  198DIO     C411037   4.084   6.126   7.512
  198DIO     C511038   4.228   6.140   7.514
  198DIO     F211039   4.284   6.254   7.467
  198DIO     C611040   4.312   6.037   7.570
  198DIO     F311041   4.446   6.052   7.571
  198DIO     C711042   3.872   5.989   7.563
  198DIO     C811043   3.795   6.009   7.439
  198DIO     C911044   3.650   5.994   7.436
  198DIO    C1011045   3.578   5.969   7.559
  198DIO    C1111046   3.650   5.941   7.682
  198DIO    C1211047   3.794   5.953   7.684
  198DIO     F411048   3.859   5.932   7.800
  198DIO     O111049   3.446   5.932   7.545
  198DIO    C1311050   3.351   5.969   7.640
  198DIO     O211051   3.350   6.058   7.730
  198DIO    C1411052   3.222   5.902   7.621
  198DIO    C1511053   3.156   5.898   7.489
  198DIO     F511054   3.218   5.947   7.380
  198DIO    C1611055   3.025   5.838   7.469
  198DIO    C1711056   2.949   5.786   7.582
  198DIO    C1811057   3.018   5.774   7.710
  198DIO    C1911058   3.150   5.833   7.730
  198DIO     F611059   3.212   5.805   7.846
  198DIO    C2011060   2.808   5.734   7.565
  198DIO     O311061   2.739   5.791   7.454
  198DIO    C2111062   2.695   5.925   7.480
  198DIO    C2211063   2.606   5.930   7.603
  198DIO    C2311064   2.687   5.870   7.718
  198DIO     O411065   2.731   5.738   7.686
  198DIO    C2411066   2.473   5.853   7.586
  198DIO    C2511067   2.383   5.901   7.472
  198DIO    C2611068   2.344   6.047   7.482
  198DIO     H111069   4.065   5.811   7.667
  198DIO     H211070   4.024   6.209   7.477
  198DIO     H311071   3.847   6.031   7.346
  198DIO     H411072   3.595   6.001   7.343
  198DIO     H511073   3.596   5.916   7.772
  198DIO     H611074   2.987   5.830   7.368
  198DIO     H711075   2.975   5.717   7.792
  198DIO     H811076   2.818   5.627   7.541
  198DIO     H911077   2.782   5.990   7.492
  198DIO    H1011078   2.642   5.960   7.391
  198DIO    H1111079   2.584   6.035   7.627
  198DIO    H1211080   2.626   5.863   7.809
  198DIO    H1311081   2.773   5.933   7.743
  198DIO    H1411082   2.493   5.746   7.571
  198DIO    H1511083   2.417   5.860   7.680
  198DIO    H1611084   2.430   5.881   7.375
  198DIO    H1711085   2.291   5.840   7.474
  198DIO    H1811086   2.300   6.071   7.579
  198DIO    H1911087   2.431   6.113   7.466
  198DIO    H2011088   2.271   6.072   7.404
  199DIO     F111089   7.418   9.160   7.651
  199DIO     C111090   7.341   9.225   7.739
  199DIO     C211091   7.197   9.223   7.722
  199DIO     C311092   7.108   9.295   7.816
  199DIO     C411093   7.173   9.367   7.928
  199DIO     C511094   7.318   9.367   7.943
  199DIO     F211095   7.373   9.430   8.049
  199DIO     C611096   7.401   9.296   7.849
  199DIO     F311097   7.535   9.298   7.863
  199DIO     C711098   6.961   9.296   7.800
  199DIO     C811099   6.884   9.422   7.802
  199DIO     C911100   6.740   9.422   7.787
  199DIO    C1011101   6.667   9.297   7.779
  199DIO    C1111102   6.740   9.172   7.770
  199DIO    C1211103   6.884   9.172   7.782
  199DIO     F411104   6.949   9.053   7.778
  199DIO     O111105   6.535   9.305   7.741
  199DIO    C1311106   6.440   9.217   7.792
  199DIO     O211107   6.439   9.141   7.893
  199DIO    C1411108   6.311   9.226   7.723
  199DIO    C1511109   6.245   9.356   7.699
  199DIO     F511110   6.308   9.471   7.732
  199DIO    C1611111   6.114   9.367   7.637
  199DIO    C1711112   6.038   9.247   7.602
  199DIO    C1811113   6.107   9.119   7.609
  199DIO    C1911114   6.239   9.108   7.670
  199DIO     F611115   6.301   8.989   7.660
  199DIO    C2011116   5.898   9.257   7.548
  199DIO     O311117   5.828   9.375   7.589
  199DIO    C2111118   5.784   9.369   7.724
  199DIO    C2211119   5.695   9.248   7.748
  199DIO    C2311120   5.776   9.125   7.705
  199DIO     O411121   5.820   9.138   7.570
  199DIO    C2411122   5.563   9.253   7.669
  199DIO    C2511123   5.472   9.373   7.700
  199DIO    C2611124   5.433   9.385   7.846
  199DIO     H111125   7.154   9.168   7.639
  199DIO     H211126   7.113   9.413   8.006
  199DIO     H311127   6.936   9.517   7.810
  199DIO     H411128   6.685   9.515   7.780
  199DIO     H511129   6.685   9.079   7.759
  199DIO     H611130   6.076   9.466   7.614
  199DIO     H711131   6.064   9.030   7.564
  199DIO     H811132   5.907   9.265   7.439
  199DIO     H911133   5.871   9.367   7.791
  199DIO    H1011134   5.731   9.462   7.747
  199DIO    H1111135   5.673   9.239   7.855
  199DIO    H1211136   5.715   9.034   7.711
  199DIO    H1311137   5.862   9.110   7.771
  199DIO    H1411138   5.582   9.253   7.561
  199DIO    H1511139   5.506   9.162   7.690
  199DIO    H1611140   5.519   9.466   7.666
  199DIO    H1711141   5.380   9.363   7.640
  199DIO    H1811142   5.390   9.292   7.884
  199DIO    H1911143   5.520   9.410   7.908
  199DIO    H2011144   5.360   9.465   7.859
  200DIO     F111145   6.780   8.336   4.585
  200DIO     C111146   6.702   8.333   4.475
  200DIO     C211147   6.558   8.325   4.490
  200DIO     C311148   6.469   8.319   4.372
  200DIO     C411149   6.535   8.324   4.239
  200DIO     C511150   6.679   8.332   4.227
  200DIO     F211151   6.735   8.341   4.104
  200DIO     C611152   6.763   8.337   4.344
  200DIO     F311153   6.897   8.344   4.332
  200DIO     C711154   6.323   8.309   4.385
  200DIO     C811155   6.246   8.207   4.311
  200DIO     C911156   6.101   8.198   4.323
  200DIO    C1011157   6.029   8.296   4.401
  200DIO    C1111158   6.101   8.394   4.481
  200DIO    C1211159   6.245   8.401   4.470
  200DIO     F411160   6.310   8.496   4.541
  200DIO     O111161   5.896   8.268   4.428
  200DIO    C1311162   5.802   8.370   4.436
  200DIO     O211163   5.801   8.489   4.397
  200DIO    C1411164   5.673   8.322   4.488
  200DIO    C1511165   5.607   8.202   4.433
  200DIO     F511166   5.669   8.127   4.340
  200DIO    C1611167   5.476   8.158   4.478
  200DIO    C1711168   5.400   8.236   4.575
  200DIO    C1811169   5.469   8.345   4.642
  200DIO    C1911170   5.600   8.388   4.599
  200DIO     F611171   5.663   8.481   4.675
  200DIO    C2011172   5.259   8.197   4.614
  200DIO     O311173   5.190   8.124   4.513
  200DIO    C2111174   5.146   8.206   4.405
  200DIO    C2211175   5.057   8.319   4.455
  200DIO    C2311176   5.138   8.395   4.560
  200DIO     O411177   5.182   8.307   4.663
  200DIO    C2411178   4.924   8.269   4.516
  200DIO    C2511179   4.834   8.189   4.423
  200DIO    C2611180   4.795   8.262   4.296
  200DIO     H111181   6.516   8.323   4.590
  200DIO     H211182   6.474   8.330   4.149
  200DIO     H311183   6.297   8.133   4.250
  200DIO     H411184   6.046   8.118   4.276
  200DIO     H511185   6.047   8.464   4.543
  200DIO     H611186   5.438   8.063   4.440
  200DIO     H711187   5.426   8.392   4.730
  200DIO     H811188   5.269   8.128   4.698
  200DIO     H911189   5.233   8.246   4.351
  200DIO    H1011190   5.093   8.142   4.333
  200DIO    H1111191   5.034   8.387   4.372
  200DIO    H1211192   5.077   8.473   4.607
  200DIO    H1311193   5.224   8.445   4.515
  200DIO    H1411194   4.944   8.208   4.605
  200DIO    H1511195   4.868   8.356   4.552
  200DIO    H1611196   4.881   8.093   4.397
  200DIO    H1711197   4.742   8.163   4.478
  200DIO    H1811198   4.751   8.360   4.318
  200DIO    H1911199   4.882   8.277   4.230
  200DIO    H2011200   4.721   8.204   4.239
  201DIO     F111201   4.286   1.426   4.197
  201DIO     C111202   4.209   1.429   4.087
  201DIO     C211203   4.065   1.420   4.101
  201DIO     C311204   3.976   1.420   3.983
  201DIO     C411205   4.041   1.433   3.850
  201DIO     C511206   4.186   1.442   3.839
  201DIO     F211207   4.241   1.457   3.717
  201DIO     C611208   4.269   1.440   3.956
  201DIO     F311209   4.403   1.447   3.944
  201DIO     C711210   3.830   1.410   3.995
  201DIO     C811211   3.752   1.312   3.916
  201DIO     C911212   3.608   1.302   3.928
  201DIO    C1011213   3.535   1.396   4.010
  201DIO    C1111214   3.608   1.490   4.095
  201DIO    C1211215   3.752   1.497   4.085
  201DIO     F411216   3.817   1.588   4.161
  201DIO     O111217   3.403   1.366   4.036
  201DIO    C1311218   3.308   1.468   4.050
  201DIO     O211219   3.308   1.589   4.017
  201DIO    C1411220   3.179   1.418   4.099
  201DIO    C1511221   3.113   1.300   4.038
  201DIO     F511222   3.176   1.230   3.941
  201DIO    C1611223   2.982   1.254   4.080
  201DIO    C1711224   2.906   1.327   4.181
  201DIO    C1811225   2.975   1.432   4.254
  201DIO    C1911226   3.107   1.478   4.213
  201DIO     F611227   3.169   1.566   4.294
  201DIO    C2011228   2.766   1.286   4.218
  201DIO     O311229   2.696   1.218   4.113
  201DIO    C2111230   2.652   1.306   4.010
  201DIO    C2211231   2.563   1.416   4.066
  201DIO    C2311232   2.644   1.486   4.175
  201DIO     O411233   2.688   1.393   4.273
  201DIO    C2411234   2.431   1.363   4.124
  201DIO    C2511235   2.340   1.288   4.027
  201DIO    C2611236   2.302   1.368   3.904
  201DIO     H111237   4.022   1.413   4.200
  201DIO     H211238   3.981   1.444   3.761
  201DIO     H311239   3.804   1.242   3.851
  201DIO     H411240   3.553   1.225   3.876
  201DIO     H511241   3.553   1.556   4.161
  201DIO     H611242   2.944   1.162   4.037
  201DIO     H711243   2.932   1.475   4.344
  201DIO     H811244   2.775   1.213   4.298
  201DIO     H911245   2.739   1.348   3.958
  201DIO    H1011246   2.600   1.246   3.935
  201DIO    H1111247   2.541   1.488   3.987
  201DIO    H1211248   2.583   1.562   4.226
  201DIO    H1311249   2.730   1.539   4.132
  201DIO    H1411250   2.451   1.297   4.210
  201DIO    H1511251   2.374   1.448   4.164
  201DIO    H1611252   2.387   1.194   3.996
  201DIO    H1711253   2.248   1.259   4.080
  201DIO    H1811254   2.258   1.464   3.931
  201DIO    H1911255   2.388   1.386   3.839
  201DIO    H2011256   2.228   1.313   3.844
  202DIO     F111257   9.015   1.229   9.332
  202DIO     C111258   8.937   1.309   9.257
  202DIO     C211259   8.793   1.293   9.261
  202DIO     C311260   8.704   1.377   9.178
  202DIO     C411261   8.770   1.480   9.094
  202DIO     C511262   8.914   1.495   9.092
  202DIO     F211263   8.970   1.592   9.017
  202DIO     C611264   8.998   1.410   9.174
  202DIO     F311265   9.132   1.424   9.170
  202DIO     C711266   8.558   1.361   9.179
  202DIO     C811267   8.481   1.348   9.054
  202DIO     C911268   8.336   1.333   9.055
  202DIO    C1011269   8.264   1.341   9.181
  202DIO    C1111270   8.336   1.346   9.306
  202DIO    C1211271   8.480   1.358   9.305
  202DIO     F411272   8.545   1.368   9.423
  202DIO     O111273   8.131   1.302   9.177
  202DIO    C1311274   8.037   1.363   9.259
  202DIO     O211275   8.036   1.471   9.322
  202DIO    C1411276   7.908   1.293   9.258
  202DIO    C1511277   7.841   1.254   9.131
  202DIO     F511278   7.904   1.273   9.013
  202DIO    C1611279   7.711   1.191   9.128
  202DIO    C1711280   7.635   1.170   9.251
  202DIO    C1811281   7.704   1.192   9.377
  202DIO    C1911282   7.835   1.254   9.381
  202DIO     F611283   7.898   1.258   9.501
  202DIO    C2011284   7.494   1.116   9.248
  202DIO     O311285   7.424   1.142   9.126
  202DIO    C2111286   7.381   1.277   9.115
  202DIO    C2211287   7.292   1.315   9.234
  202DIO    C2311288   7.373   1.287   9.360
  202DIO     O411289   7.417   1.151   9.363
  202DIO    C2411290   7.159   1.236   9.237
  202DIO    C2511291   7.068   1.252   9.115
  202DIO    C2611292   7.030   1.396   9.085
  202DIO     H111293   8.751   1.217   9.325
  202DIO     H211294   8.709   1.551   9.039
  202DIO     H311295   8.532   1.345   8.959
  202DIO     H411296   8.281   1.315   8.964
  202DIO     H511297   8.282   1.345   9.400
  202DIO     H611298   7.673   1.157   9.032
  202DIO     H711299   7.661   1.158   9.471
  202DIO     H811300   7.504   1.006   9.252
  202DIO     H911301   7.467   1.344   9.110
  202DIO    H1011302   7.328   1.288   9.020
  202DIO    H1111303   7.269   1.422   9.229
  202DIO    H1211304   7.312   1.304   9.449
  202DIO    H1311305   7.459   1.354   9.368
  202DIO    H1411306   7.179   1.129   9.250
  202DIO    H1511307   7.103   1.268   9.326
  202DIO    H1611308   7.116   1.208   9.026
  202DIO    H1711309   6.977   1.195   9.132
  202DIO    H1811310   6.986   1.444   9.173
  202DIO    H1911311   7.117   1.455   9.053
  202DIO    H2011312   6.956   1.400   9.004
  203DIO     F111313   8.664   6.744   1.835
  203DIO     C111314   8.586   6.798   1.739
  203DIO     C211315   8.442   6.783   1.748
  203DIO     C311316   8.354   6.839   1.643
  203DIO     C411317   8.419   6.913   1.532
  203DIO     C511318   8.563   6.926   1.526
  203DIO     F211319   8.619   6.997   1.426
  203DIO     C611320   8.647   6.869   1.629
  203DIO     F311321   8.781   6.882   1.622
  203DIO     C711322   8.207   6.825   1.649
  203DIO     C811323   8.130   6.775   1.533
  203DIO     C911324   7.985   6.761   1.539
  203DIO    C1011325   7.913   6.805   1.657
  203DIO    C1111326   7.985   6.848   1.775
  203DIO    C1211327   8.129   6.859   1.770
  203DIO     F411328   8.194   6.904   1.880
  203DIO     O111329   7.781   6.767   1.665
  203DIO    C1311330   7.686   6.850   1.725
  203DIO     O211331   7.685   6.972   1.753
  203DIO    C1411332   7.557   6.783   1.745
  203DIO    C1511333   7.491   6.708   1.636
  203DIO     F511334   7.553   6.691   1.517
  203DIO    C1611335   7.360   6.647   1.651
  203DIO    C1711336   7.284   6.664   1.775
  203DIO    C1811337   7.353   6.723   1.889
  203DIO    C1911338   7.484   6.782   1.874
  203DIO     F611339   7.547   6.822   1.987
  203DIO    C2011340   7.143   6.611   1.788
  203DIO     O311341   7.074   6.600   1.663
  203DIO    C2111342   7.030   6.725   1.613
  203DIO    C2211343   6.941   6.797   1.715
  203DIO    C2311344   7.022   6.808   1.844
  203DIO     O411345   7.066   6.679   1.887
  203DIO    C2411346   6.808   6.722   1.742
  203DIO    C2511347   6.718   6.701   1.620
  203DIO    C2611348   6.679   6.830   1.549
  203DIO     H111349   8.400   6.730   1.832
  203DIO     H211350   8.358   6.964   1.458
  203DIO     H311351   8.182   6.743   1.444
  203DIO     H411352   7.930   6.717   1.457
  203DIO     H511353   7.931   6.875   1.864
  203DIO     H611354   7.322   6.586   1.570
  203DIO     H711355   7.310   6.718   1.988
  203DIO     H811356   7.153   6.508   1.825
  203DIO     H911357   7.117   6.787   1.588
  203DIO    H1011358   6.977   6.708   1.519
  203DIO    H1111359   6.919   6.898   1.679
  203DIO    H1211360   6.961   6.850   1.924
  203DIO    H1311361   7.108   6.874   1.831
  203DIO    H1411362   6.828   6.624   1.786
  203DIO    H1511363   6.752   6.779   1.817
  203DIO    H1611364   6.765   6.633   1.549
  203DIO    H1711365   6.626   6.651   1.654
  203DIO    H1811366   6.635   6.902   1.619
  203DIO    H1911367   6.766   6.877   1.501
  203DIO    H2011368   6.606   6.809   1.471
  204DIO     F111369   9.397   7.915   5.553
  204DIO     C111370   9.319   8.006   5.491
  204DIO     C211371   9.175   7.989   5.492
  204DIO     C311372   9.086   8.085   5.423
  204DIO     C411373   9.152   8.200   5.356
  204DIO     C511374   9.296   8.214   5.356
  204DIO     F211375   9.351   8.322   5.298
  204DIO     C611376   9.380   8.118   5.424
  204DIO     F311377   9.513   8.132   5.422
  204DIO     C711378   8.940   8.069   5.422
  204DIO     C811379   8.863   8.076   5.296
  204DIO     C911380   8.718   8.061   5.295
  204DIO    C1011381   8.645   8.048   5.420
  204DIO    C1111382   8.718   8.034   5.545
  204DIO    C1211383   8.862   8.047   5.546
  204DIO     F411384   8.927   8.038   5.663
  204DIO     O111385   8.513   8.011   5.410
  204DIO    C1311386   8.419   8.058   5.501
  204DIO     O211387   8.418   8.156   5.580
  204DIO    C1411388   8.290   7.989   5.489
  204DIO    C1511389   8.223   7.970   5.358
  204DIO     F511390   8.286   8.008   5.244
  204DIO    C1611391   8.092   7.909   5.345
  204DIO    C1711392   8.017   7.870   5.463
  204DIO    C1811393   8.085   7.872   5.591
  204DIO    C1911394   8.217   7.932   5.604
  204DIO     F611395   8.280   7.917   5.723
  204DIO    C2011396   7.876   7.816   5.452
  204DIO     O311397   7.806   7.861   5.335
  204DIO    C2111398   7.763   7.996   5.346
  204DIO    C2211399   7.674   8.015   5.468
  204DIO    C2311400   7.754   7.967   5.589
  204DIO     O411401   7.799   7.833   5.571
  204DIO    C2411402   7.541   7.936   5.459
  204DIO    C2511403   7.450   7.972   5.341
  204DIO    C2611404   7.412   8.119   5.334
  204DIO     H111405   9.132   7.904   5.544
  204DIO     H211406   9.091   8.279   5.313
  204DIO     H311407   8.914   8.087   5.201
  204DIO     H411408   8.663   8.057   5.202
  204DIO     H511409   8.663   8.019   5.637
  204DIO     H611410   8.054   7.890   5.245
  204DIO     H711411   8.043   7.823   5.678
  204DIO     H811412   7.886   7.707   5.439
  204DIO     H911413   7.849   8.063   5.351
  204DIO    H1011414   7.710   8.022   5.254
  204DIO    H1111415   7.651   8.121   5.481
  204DIO    H1211416   7.693   7.970   5.680
  204DIO    H1311417   7.841   8.033   5.607
  204DIO    H1411418   7.561   7.829   5.456
  204DIO    H1511419   7.484   7.954   5.552
  204DIO    H1611420   7.498   7.942   5.247
  204DIO    H1711421   7.358   7.912   5.349
  204DIO    H1811422   7.368   8.152   5.429
  204DIO    H1911423   7.498   8.182   5.312
  204DIO    H2011424   7.338   8.134   5.255
  205DIO     F111425   8.798   2.126   9.627
  205DIO     C111426   8.721   2.036   9.691
  205DIO     C211427   8.577   2.053   9.689
  205DIO     C311428   8.488   1.957   9.760
  205DIO     C411429   8.553   1.844   9.829
  205DIO     C511430   8.698   1.829   9.829
  205DIO     F211431   8.753   1.722   9.889
  205DIO     C611432   8.781   1.924   9.760
  205DIO     F311433   8.915   1.910   9.761
  205DIO     C711434   8.342   1.973   9.761
  205DIO     C811435   8.264   1.969   9.887
  205DIO     C911436   8.120   1.984   9.887
  205DIO    C1011437   8.047   1.994   9.762
  205DIO    C1111438   8.120   2.007   9.637
  205DIO    C1211439   8.264   1.994   9.637
  205DIO     F411440   8.329   2.000   9.519
  205DIO     O111441   7.915   2.032   9.771
  205DIO    C1311442   7.820   1.983   9.682
  205DIO     O211443   7.820   1.884   9.604
  205DIO    C1411444   7.691   2.052   9.692
  205DIO    C1511445   7.625   2.073   9.823
  205DIO     F511446   7.688   2.038   9.937
  205DIO    C1611447   7.494   2.135   9.835
  205DIO    C1711448   7.418   2.172   9.716
  205DIO    C1811449   7.487   2.168   9.588
  205DIO    C1911450   7.619   2.108   9.576
  205DIO     F611451   7.681   2.120   9.457
  205DIO    C2011452   7.278   2.226   9.727
  205DIO     O311453   7.208   2.183   9.844
  205DIO    C2111454   7.164   2.048   9.836
  205DIO    C2211455   7.075   2.027   9.713
  205DIO    C2311456   7.156   2.072   9.592
  205DIO     O411457   7.200   2.207   9.608
  205DIO    C2411458   6.943   2.105   9.721
  205DIO    C2511459   6.852   2.072   9.840
  205DIO    C2611460   6.814   1.926   9.849
  205DIO     H111461   8.534   2.137   9.636
  205DIO     H211462   8.493   1.766   9.874
  205DIO     H311463   8.316   1.959   9.981
  205DIO     H411464   8.065   1.989   9.980
  205DIO     H511465   8.065   2.020   9.544
  205DIO     H611466   7.456   2.156   9.934
  205DIO     H711467   7.444   2.215   9.500
  205DIO     H811468   7.287   2.335   9.738
  205DIO     H911469   7.251   1.981   9.832
  205DIO    H1011470   7.112   2.024   9.928
  205DIO    H1111471   7.053   1.920   9.703
  205DIO    H1211472   7.095   2.068   9.501
  205DIO    H1311473   7.242   2.006   9.575
  205DIO    H1411474   6.963   2.213   9.723
  205DIO    H1511475   6.886   2.087   9.629
  205DIO    H1611476   6.899   2.104   9.934
  205DIO    H1711477   6.760   2.132   9.831
  205DIO    H1811478   6.770   1.890   9.755
  205DIO    H1911479   6.900   1.863   9.873
  205DIO    H2011480   6.740   1.911   9.929
  206DIO     F111481   8.504   0.681   1.437
  206DIO     C111482   8.426   0.774   1.379
  206DIO     C211483   8.282   0.757   1.380
  206DIO     C311484   8.193   0.856   1.315
  206DIO     C411485   8.259   0.974   1.253
  206DIO     C511486   8.403   0.989   1.254
  206DIO     F211487   8.459   1.099   1.200
  206DIO     C611488   8.487   0.889   1.317
  206DIO     F311489   8.621   0.904   1.316
  206DIO     C711490   8.047   0.841   1.313
  206DIO     C811491   7.970   0.853   1.188
  206DIO     C911492   7.825   0.838   1.186
  206DIO    C1011493   7.753   0.820   1.310
  206DIO    C1111494   7.825   0.800   1.435
  206DIO    C1211495   7.969   0.813   1.436
  206DIO     F411496   8.034   0.799   1.553
  206DIO     O111497   7.620   0.783   1.299
  206DIO    C1311498   7.526   0.826   1.392
  206DIO     O211499   7.525   0.921   1.475
  206DIO    C1411500   7.397   0.758   1.377
  206DIO    C1511501   7.330   0.745   1.245
  206DIO     F511502   7.393   0.787   1.133
  206DIO    C1611503   7.200   0.684   1.229
  206DIO    C1711504   7.124   0.639   1.346
  206DIO    C1811505   7.193   0.636   1.474
  206DIO    C1911506   7.324   0.696   1.490
  206DIO     F611507   7.387   0.676   1.608
  206DIO    C2011508   6.983   0.586   1.332
  206DIO     O311509   6.913   0.636   1.217
  206DIO    C2111510   6.870   0.771   1.234
  206DIO    C2211511   6.781   0.784   1.357
  206DIO    C2311512   6.862   0.732   1.476
  206DIO     O411513   6.906   0.599   1.452
  206DIO    C2411514   6.648   0.706   1.345
  206DIO    C2511515   6.557   0.747   1.228
  206DIO    C2611516   6.519   0.894   1.228
  206DIO     H111517   8.240   0.670   1.428
  206DIO     H211518   8.198   1.055   1.213
  206DIO     H311519   8.021   0.868   1.094
  206DIO     H411520   7.770   0.838   1.093
  206DIO     H511521   7.771   0.782   1.526
  206DIO     H611522   7.162   0.669   1.129
  206DIO     H711523   7.150   0.584   1.559
  206DIO     H811524   6.993   0.478   1.315
  206DIO     H911525   6.956   0.837   1.242
  206DIO    H1011526   6.817   0.800   1.143
  206DIO    H1111527   6.758   0.890   1.374
  206DIO    H1211528   6.801   0.731   1.567
  206DIO    H1311529   6.948   0.797   1.496
  206DIO    H1411530   6.668   0.599   1.337
  206DIO    H1511531   6.592   0.720   1.438
  206DIO    H1611532   6.605   0.721   1.133
  206DIO    H1711533   6.466   0.687   1.234
  206DIO    H1811534   6.475   0.923   1.324
  206DIO    H1911535   6.606   0.958   1.208
  206DIO    H2011536   6.445   0.913   1.149
  207DIO     F111537   7.474   1.398   5.480
  207DIO     C111538   7.396   1.491   5.421
  207DIO     C211539   7.252   1.474   5.422
  207DIO     C311540   7.163   1.572   5.356
  207DIO     C411541   7.229   1.689   5.293
  207DIO     C511542   7.373   1.704   5.294
  207DIO     F211543   7.428   1.814   5.238
  207DIO     C611544   7.457   1.605   5.358
  207DIO     F311545   7.590   1.620   5.357
  207DIO     C711546   7.017   1.556   5.355
  207DIO     C811547   6.940   1.567   5.229
  207DIO     C911548   6.795   1.552   5.227
  207DIO    C1011549   6.722   1.536   5.352
  207DIO    C1111550   6.795   1.517   5.476
  207DIO    C1211551   6.939   1.530   5.477
  207DIO     F411552   7.004   1.518   5.595
  207DIO     O111553   6.590   1.498   5.341
  207DIO    C1311554   6.496   1.543   5.433
  207DIO     O211555   6.495   1.638   5.515
  207DIO    C1411556   6.366   1.475   5.419
  207DIO    C1511557   6.300   1.460   5.287
  207DIO     F511558   6.363   1.501   5.175
  207DIO    C1611559   6.169   1.399   5.272
  207DIO    C1711560   6.094   1.356   5.389
  207DIO    C1811561   6.162   1.354   5.518
  207DIO    C1911562   6.294   1.413   5.532
  207DIO     F611563   6.356   1.395   5.651
  207DIO    C2011564   5.953   1.302   5.376
  207DIO     O311565   5.883   1.351   5.261
  207DIO    C2111566   5.839   1.486   5.276
  207DIO    C2211567   5.751   1.501   5.399
  207DIO    C2311568   5.831   1.449   5.518
  207DIO     O411569   5.876   1.316   5.496
  207DIO    C2411570   5.618   1.423   5.388
  207DIO    C2511571   5.527   1.462   5.270
  207DIO    C2611572   5.489   1.609   5.269
  207DIO     H111573   7.209   1.387   5.471
  207DIO     H211574   7.168   1.769   5.252
  207DIO     H311575   6.991   1.582   5.135
  207DIO     H411576   6.740   1.552   5.134
  207DIO     H511577   6.740   1.500   5.568
  207DIO     H611578   6.131   1.383   5.172
  207DIO     H711579   6.119   1.303   5.603
  207DIO     H811580   5.963   1.194   5.360
  207DIO     H911581   5.926   1.552   5.283
  207DIO    H1011582   5.787   1.515   5.185
  207DIO    H1111583   5.728   1.607   5.415
  207DIO    H1211584   5.770   1.449   5.609
  207DIO    H1311585   5.917   1.514   5.538
  207DIO    H1411586   5.638   1.315   5.381
  207DIO    H1511587   5.561   1.437   5.481
  207DIO    H1611588   5.574   1.435   5.175
  207DIO    H1711589   5.435   1.402   5.277
  207DIO    H1811590   5.445   1.639   5.364
  207DIO    H1911591   5.575   1.672   5.248
  207DIO    H2011592   5.415   1.627   5.190
  208DIO     F111593   3.667   8.692   3.794
  208DIO     C111594   3.590   8.640   3.891
  208DIO     C211595   3.445   8.655   3.882
  208DIO     C311596   3.357   8.601   3.988
  208DIO     C411597   3.422   8.530   4.100
  208DIO     C511598   3.566   8.516   4.106
  208DIO     F211599   3.622   8.448   4.208
  208DIO     C611600   3.650   8.571   4.002
  208DIO     F311601   3.784   8.559   4.010
  208DIO     C711602   3.210   8.615   3.981
  208DIO     C811603   3.133   8.667   4.096
  208DIO     C911604   2.988   8.681   4.090
  208DIO    C1011605   2.916   8.635   3.974
  208DIO    C1111606   2.988   8.590   3.856
  208DIO    C1211607   3.132   8.579   3.861
  208DIO     F411608   3.197   8.532   3.753
  208DIO     O111609   2.784   8.673   3.965
  208DIO    C1311610   2.689   8.589   3.906
  208DIO     O211611   2.688   8.466   3.881
  208DIO    C1411612   2.560   8.655   3.885
  208DIO    C1511613   2.494   8.733   3.993
  208DIO     F511614   2.556   8.752   4.111
  208DIO    C1611615   2.363   8.793   3.976
  208DIO    C1711616   2.287   8.774   3.853
  208DIO    C1811617   2.356   8.713   3.740
  208DIO    C1911618   2.488   8.653   3.756
  208DIO     F611619   2.550   8.612   3.644
  208DIO    C2011620   2.146   8.827   3.839
  208DIO     O311621   2.077   8.840   3.963
  208DIO    C2111622   2.033   8.715   4.015
  208DIO    C2211623   1.944   8.642   3.915
  208DIO    C2311624   2.025   8.629   3.786
  208DIO     O411625   2.069   8.756   3.741
  208DIO    C2411626   1.811   8.716   3.887
  208DIO    C2511627   1.721   8.739   4.008
  208DIO    C2611628   1.682   8.612   4.082
  208DIO     H111629   3.403   8.706   3.797
  208DIO     H211630   3.362   8.480   4.175
  208DIO     H311631   3.185   8.701   4.185
  208DIO     H411632   2.933   8.727   4.171
  208DIO     H511633   2.934   8.560   3.767
  208DIO     H611634   2.325   8.856   4.056
  208DIO     H711635   2.313   8.716   3.641
  208DIO     H811636   2.156   8.929   3.800
  208DIO     H911637   2.120   8.654   4.042
  208DIO    H1011638   1.980   8.735   4.109
  208DIO    H1111639   1.922   8.542   3.953
  208DIO    H1211640   1.964   8.584   3.707
  208DIO    H1311641   2.111   8.562   3.801
  208DIO    H1411642   1.831   8.813   3.840
  208DIO    H1511643   1.755   8.658   3.813
  208DIO    H1611644   1.768   8.809   4.078
  208DIO    H1711645   1.629   8.788   3.973
  208DIO    H1811646   1.638   8.538   4.013
  208DIO    H1911647   1.769   8.566   4.131
  208DIO    H2011648   1.609   8.634   4.159
  209DIO     F111649   3.375   7.590   6.002
  209DIO     C111650   3.297   7.691   6.046
  209DIO     C211651   3.153   7.681   6.033
  209DIO     C311652   3.064   7.790   6.078
  209DIO     C411653   3.130   7.908   6.140
  209DIO     C511654   3.274   7.915   6.153
  209DIO     F211655   3.329   8.022   6.214
  209DIO     C611656   3.358   7.807   6.107
  209DIO     F311657   3.491   7.816   6.118
  209DIO     C711658   2.918   7.783   6.064
  209DIO     C811659   2.841   7.894   6.003
  209DIO     C911660   2.696   7.886   5.990
  209DIO    C1011661   2.623   7.774   6.045
  209DIO    C1111662   2.696   7.660   6.099
  209DIO    C1211663   2.840   7.666   6.110
  209DIO     F411664   2.905   7.561   6.165
  209DIO     O111665   2.491   7.762   6.008
  209DIO    C1311666   2.397   7.710   6.096
  209DIO     O211667   2.396   7.694   6.221
  209DIO    C1411668   2.267   7.684   6.032
  209DIO    C1511669   2.201   7.785   5.946
  209DIO     F511670   2.264   7.901   5.918
  209DIO    C1611671   2.070   7.764   5.887
  209DIO    C1711672   1.995   7.643   5.916
  209DIO    C1811673   2.063   7.535   5.986
  209DIO    C1911674   2.195   7.556   6.044
  209DIO     F611675   2.257   7.447   6.094
  209DIO    C2011676   1.854   7.624   5.865
  209DIO     O311677   1.784   7.747   5.841
  209DIO    C2111678   1.740   7.809   5.962
  209DIO    C2211679   1.652   7.715   6.043
  209DIO    C2311680   1.732   7.587   6.066
  209DIO     O411681   1.777   7.532   5.942
  209DIO    C2411682   1.519   7.681   5.971
  209DIO    C2511683   1.428   7.800   5.939
  209DIO    C2611684   1.390   7.883   6.060
  209DIO     H111685   3.110   7.592   5.988
  209DIO     H211686   3.069   7.987   6.184
  209DIO     H311687   2.892   7.980   5.963
  209DIO     H411688   2.641   7.963   5.938
  209DIO     H511689   2.641   7.574   6.136
  209DIO     H611690   2.032   7.838   5.818
  209DIO     H711691   2.020   7.435   5.991
  209DIO     H811692   1.864   7.577   5.766
  209DIO     H911693   1.827   7.840   6.021
  209DIO    H1011694   1.688   7.901   5.935
  209DIO    H1111695   1.629   7.761   6.140
  209DIO    H1211696   1.671   7.512   6.116
  209DIO    H1311697   1.818   7.607   6.131
  209DIO    H1411698   1.539   7.627   5.878
  209DIO    H1511699   1.462   7.612   6.035
  209DIO    H1611700   1.475   7.864   5.863
  209DIO    H1711701   1.336   7.762   5.892
  209DIO    H1811702   1.346   7.821   6.138
  209DIO    H1911703   1.476   7.936   6.101
  209DIO    H2011704   1.316   7.959   6.031
  210DIO     F111705   3.288   7.245   7.795
  210DIO     C111706   3.211   7.327   7.868
  210DIO     C211707   3.067   7.322   7.852
  210DIO     C311708   2.978   7.411   7.930
  210DIO     C411709   3.043   7.504   8.025
  210DIO     C511710   3.188   7.507   8.040
  210DIO     F211711   3.243   7.589   8.131
  210DIO     C611712   3.271   7.418   7.962
  210DIO     F311713   3.405   7.423   7.975
  210DIO     C711714   2.832   7.408   7.914
  210DIO     C811715   2.754   7.533   7.891
  210DIO     C911716   2.610   7.530   7.876
  210DIO    C1011717   2.537   7.406   7.893
  210DIO    C1111718   2.610   7.281   7.909
  210DIO    C1211719   2.754   7.283   7.921
  210DIO     F411720   2.819   7.167   7.941
  210DIO     O111721   2.405   7.406   7.854
  210DIO    C1311722   2.310   7.329   7.922
  210DIO     O211723   2.310   7.275   8.036
  210DIO    C1411724   2.181   7.325   7.852
  210DIO    C1511725   2.115   7.447   7.803
  210DIO     F511726   2.178   7.567   7.812
  210DIO    C1611727   1.984   7.446   7.740
  210DIO    C1711728   1.908   7.322   7.730
  210DIO    C1811729   1.977   7.197   7.762
  210DIO    C1911730   2.109   7.199   7.823
  210DIO     F611731   2.171   7.080   7.837
  210DIO    C2011732   1.768   7.320   7.675
  210DIO     O311733   1.698   7.444   7.691
  210DIO    C2111734   1.654   7.465   7.825
  210DIO    C2211735   1.565   7.351   7.872
  210DIO    C2311736   1.646   7.222   7.854
  210DIO     O411737   1.690   7.208   7.720
  210DIO    C2411738   1.433   7.341   7.794
  210DIO    C2511739   1.342   7.464   7.800
  210DIO    C2611740   1.304   7.505   7.941
  210DIO     H111741   3.024   7.251   7.782
  210DIO     H211742   2.983   7.564   8.092
  210DIO     H311743   2.806   7.627   7.880
  210DIO     H411744   2.555   7.620   7.851
  210DIO     H511745   2.555   7.188   7.916
  210DIO     H611746   1.946   7.538   7.698
  210DIO     H711747   1.934   7.101   7.736
  210DIO     H811748   1.777   7.307   7.566
  210DIO     H911749   1.741   7.476   7.891
  210DIO    H1011750   1.602   7.561   7.828
  210DIO    H1111751   1.543   7.364   7.979
  210DIO    H1211752   1.585   7.135   7.879
  210DIO    H1311753   1.732   7.220   7.922
  210DIO    H1411754   1.453   7.319   7.688
  210DIO    H1511755   1.376   7.255   7.833
  210DIO    H1611756   1.389   7.549   7.749
  210DIO    H1711757   1.250   7.442   7.744
  210DIO    H1811758   1.260   7.422   7.996
  210DIO    H1911759   1.390   7.542   7.997
  210DIO    H2011760   1.230   7.586   7.938
  211DIO     F111761   4.927   4.606   6.677
  211DIO     C111762   4.849   4.558   6.578
  211DIO     C211763   4.705   4.556   6.595
  211DIO     C311764   4.616   4.502   6.490
  211DIO     C411765   4.682   4.452   6.367
  211DIO     C511766   4.826   4.454   6.352
  211DIO     F211767   4.881   4.412   6.237
  211DIO     C611768   4.910   4.507   6.457
  211DIO     F311769   5.044   4.508   6.443
  211DIO     C711770   4.470   4.499   6.506
  211DIO     C811771   4.393   4.375   6.481
  211DIO     C911772   4.248   4.372   6.496
  211DIO    C1011773   4.175   4.494   6.526
  211DIO    C1111774   4.248   4.615   6.558
  211DIO    C1211775   4.392   4.618   6.545
  211DIO     F411776   4.457   4.733   6.570
  211DIO     O111777   4.043   4.479   6.562
  211DIO    C1311778   3.949   4.575   6.528
  211DIO     O211779   3.948   4.668   6.442
  211DIO    C1411780   3.820   4.554   6.594
  211DIO    C1511781   3.753   4.421   6.594
  211DIO     F511782   3.816   4.314   6.541
  211DIO    C1611783   3.623   4.399   6.653
  211DIO    C1711784   3.547   4.511   6.709
  211DIO    C1811785   3.616   4.638   6.725
  211DIO    C1911786   3.747   4.660   6.667
  211DIO     F611787   3.810   4.775   6.699
  211DIO    C2011788   3.406   4.492   6.760
  211DIO     O311789   3.336   4.383   6.699
  211DIO    C2111790   3.293   4.413   6.567
  211DIO    C2211791   3.204   4.537   6.566
  211DIO    C2311792   3.285   4.650   6.630
  211DIO     O411793   3.329   4.613   6.760
  211DIO    C2411794   3.071   4.517   6.642
  211DIO    C2511795   2.980   4.405   6.591
  211DIO    C2611796   2.942   4.419   6.444
  211DIO     H111797   4.662   4.596   6.687
  211DIO     H211798   4.621   4.420   6.283
  211DIO     H311799   4.444   4.283   6.456
  211DIO     H411800   4.193   4.279   6.486
  211DIO     H511801   4.194   4.705   6.585
  211DIO     H611802   3.584   4.298   6.658
  211DIO     H711803   3.573   4.718   6.785
  211DIO     H811804   3.416   4.464   6.866
  211DIO     H911805   3.379   4.427   6.502
  211DIO    H1011806   3.240   4.325   6.529
  211DIO    H1111807   3.181   4.564   6.462
  211DIO    H1211808   3.223   4.740   6.640
  211DIO    H1311809   3.371   4.676   6.567
  211DIO    H1411810   3.091   4.498   6.748
  211DIO    H1511811   3.015   4.611   6.638
  211DIO    H1611812   3.028   4.307   6.607
  211DIO    H1711813   2.889   4.404   6.651
  211DIO    H1811814   2.898   4.517   6.424
  211DIO    H1911815   3.028   4.406   6.379
  211DIO    H2011816   2.868   4.343   6.417
  212DIO     F111817   9.517   9.347   4.686
  212DIO     C111818   9.440   9.371   4.793
  212DIO     C211819   9.296   9.376   4.777
  212DIO     C311820   9.207   9.403   4.892
  212DIO     C411821   9.272   9.423   5.024
  212DIO     C511822   9.417   9.417   5.037
  212DIO     F211823   9.472   9.431   5.159
  212DIO     C611824   9.500   9.390   4.923
  212DIO     F311825   9.634   9.386   4.936
  212DIO     C711826   9.060   9.410   4.878
  212DIO     C811827   8.983   9.525   4.931
  212DIO     C911828   8.839   9.531   4.918
  212DIO    C1011829   8.766   9.420   4.860
  212DIO    C1111830   8.838   9.310   4.799
  212DIO    C1211831   8.983   9.304   4.811
  212DIO     F411832   9.047   9.198   4.759
  212DIO     O111833   8.634   9.443   4.828
  212DIO    C1311834   8.539   9.341   4.838
  212DIO     O211835   8.538   9.231   4.899
  212DIO    C1411836   8.410   9.378   4.779
  212DIO    C1511837   8.344   9.507   4.810
  212DIO     F511838   8.406   9.598   4.888
  212DIO    C1611839   8.213   9.542   4.758
  212DIO    C1711840   8.137   9.447   4.678
  212DIO    C1811841   8.206   9.327   4.631
  212DIO    C1911842   8.338   9.293   4.682
  212DIO     F611843   8.400   9.188   4.624
  212DIO    C2011844   7.997   9.478   4.632
  212DIO     O311845   7.927   9.569   4.718
  212DIO    C2111846   7.883   9.508   4.839
  212DIO    C2211847   7.794   9.388   4.810
  212DIO    C2311848   7.875   9.294   4.721
  212DIO     O411849   7.919   9.361   4.604
  212DIO    C2411850   7.661   9.425   4.741
  212DIO    C2511851   7.571   9.522   4.818
  212DIO    C2611852   7.532   9.473   4.957
  212DIO     H111853   9.253   9.359   4.679
  212DIO     H211854   9.212   9.433   5.113
  212DIO     H311855   9.035   9.608   4.977
  212DIO     H411856   8.783   9.619   4.949
  212DIO     H511857   8.784   9.229   4.751
  212DIO     H611858   8.175   9.642   4.778
  212DIO     H711859   8.163   9.265   4.554
  212DIO     H811860   8.006   9.530   4.536
  212DIO     H911861   7.970   9.479   4.899
  212DIO    H1011862   7.830   9.584   4.897
  212DIO    H1111863   7.772   9.336   4.904
  212DIO    H1211864   7.814   9.208   4.690
  212DIO    H1311865   7.961   9.253   4.775
  212DIO    H1411866   7.681   9.469   4.642
  212DIO    H1511867   7.605   9.333   4.722
  212DIO    H1611868   7.618   9.620   4.826
  212DIO    H1711869   7.479   9.537   4.759
  212DIO    H1811870   7.488   9.373   4.953
  212DIO    H1911871   7.619   9.470   5.024
  212DIO    H2011872   7.459   9.541   5.001
  213DIO     F111873   9.385   0.358   5.823
  213DIO     C111874   9.307   0.379   5.931
  213DIO     C211875   9.163   0.384   5.915
  213DIO     C311876   9.074   0.410   6.031
  213DIO     C411877   9.140   0.426   6.163
  213DIO     C511878   9.284   0.420   6.176
  213DIO     F211879   9.340   0.432   6.298
  213DIO     C611880   9.368   0.396   6.061
  213DIO     F311881   9.502   0.392   6.074
  213DIO     C711882   8.928   0.417   6.016
  213DIO     C811883   8.851   0.530   6.072
  213DIO     C911884   8.706   0.537   6.059
  213DIO    C1011885   8.634   0.427   5.998
  213DIO    C1111886   8.706   0.318   5.936
  213DIO    C1211887   8.850   0.312   5.947
  213DIO     F411888   8.915   0.207   5.893
  213DIO     O111889   8.501   0.451   5.967
  213DIO    C1311890   8.407   0.349   5.975
  213DIO     O211891   8.406   0.237   6.034
  213DIO    C1411892   8.278   0.387   5.917
  213DIO    C1511893   8.211   0.515   5.951
  213DIO     F511894   8.274   0.604   6.030
  213DIO    C1611895   8.081   0.551   5.899
  213DIO    C1711896   8.005   0.458   5.817
  213DIO    C1811897   8.074   0.339   5.768
  213DIO    C1911898   8.205   0.303   5.818
  213DIO     F611899   8.268   0.200   5.758
  213DIO    C2011900   7.864   0.489   5.772
  213DIO     O311901   7.794   0.579   5.859
  213DIO    C2111902   7.751   0.516   5.979
  213DIO    C2211903   7.662   0.396   5.948
  213DIO    C2311904   7.743   0.303   5.857
  213DIO     O411905   7.787   0.373   5.741
  213DIO    C2411906   7.529   0.435   5.880
  213DIO    C2511907   7.438   0.530   5.958
  213DIO    C2611908   7.400   0.478   6.096
  213DIO     H111909   9.121   0.370   5.816
  213DIO     H211910   9.079   0.435   6.252
  213DIO     H311911   8.902   0.613   6.120
  213DIO     H411912   8.651   0.624   6.092
  213DIO     H511913   8.652   0.239   5.886
  213DIO     H611914   8.043   0.650   5.921
  213DIO     H711915   8.031   0.278   5.690
  213DIO     H811916   7.874   0.544   5.677
  213DIO     H911917   7.837   0.485   6.039
  213DIO    H1011918   7.698   0.590   6.039
  213DIO    H1111919   7.639   0.342   6.041
  213DIO    H1211920   7.682   0.219   5.824
  213DIO    H1311921   7.829   0.261   5.911
  213DIO    H1411922   7.549   0.480   5.782
  213DIO    H1511923   7.473   0.343   5.859
  213DIO    H1611924   7.486   0.628   5.968
  213DIO    H1711925   7.347   0.546   5.900
  213DIO    H1811926   7.356   0.378   6.090
  213DIO    H1911927   7.487   0.474   6.163
  213DIO    H2011928   7.326   0.545   6.142
  214DIO     F111929   8.239   4.122   9.023
  214DIO     C111930   8.161   4.092   8.917
  214DIO     C211931   8.017   4.087   8.934
  214DIO     C311932   7.928   4.053   8.821
  214DIO     C411933   7.994   4.026   8.690
  214DIO     C511934   8.138   4.031   8.677
  214DIO     F211935   8.193   4.009   8.556
  214DIO     C611936   8.222   4.064   8.789
  214DIO     F311937   8.355   4.067   8.776
  214DIO     C711938   7.782   4.047   8.835
  214DIO     C811939   7.705   3.929   8.789
  214DIO     C911940   7.560   3.924   8.803
  214DIO    C1011941   7.487   4.038   8.854
  214DIO    C1111942   7.560   4.152   8.908
  214DIO    C1211943   7.704   4.157   8.896
  214DIO     F411944   7.769   4.266   8.941
  214DIO     O111945   7.355   4.017   8.887
  214DIO    C1311946   7.261   4.118   8.871
  214DIO     O211947   7.260   4.224   8.803
  214DIO    C1411948   7.131   4.085   8.932
  214DIO    C1511949   7.065   3.955   8.909
  214DIO     F511950   7.128   3.859   8.837
  214DIO    C1611951   6.934   3.923   8.963
  214DIO    C1711952   6.859   4.022   9.038
  214DIO    C1811953   6.927   4.145   9.077
  214DIO    C1911954   7.059   4.176   9.024
  214DIO     F611955   7.121   4.284   9.075
  214DIO    C2011956   6.718   3.994   9.085
  214DIO     O311957   6.648   3.898   9.005
  214DIO    C2111958   6.604   3.951   8.881
  214DIO    C2211959   6.516   4.073   8.901
  214DIO    C2311960   6.596   4.173   8.985
  214DIO     O411961   6.641   4.113   9.106
  214DIO    C2411962   6.383   4.040   8.973
  214DIO    C2511963   6.292   3.939   8.902
  214DIO    C2611964   6.254   3.979   8.761
  214DIO     H111965   7.974   4.110   9.031
  214DIO     H211966   7.933   4.009   8.602
  214DIO     H311967   7.756   3.843   8.748
  214DIO     H411968   7.505   3.834   8.777
  214DIO     H511969   7.505   4.235   8.951
  214DIO     H611970   6.896   3.822   8.949
  214DIO     H711971   6.884   4.212   9.150
  214DIO     H811972   6.728   3.948   9.184
  214DIO     H911973   6.691   3.977   8.819
  214DIO    H1011974   6.552   3.872   8.827
  214DIO    H1111975   6.493   4.119   8.805
  214DIO    H1211976   6.535   4.260   9.011
  214DIO    H1311977   6.682   4.211   8.928
  214DIO    H1411978   6.403   4.003   9.074
  214DIO    H1511979   6.326   4.134   8.986
  214DIO    H1611980   6.339   3.840   8.901
  214DIO    H1711981   6.200   3.928   8.962
  214DIO    H1811982   6.210   4.080   8.759
  214DIO    H1911983   6.340   3.978   8.694
  214DIO    H2011984   6.180   3.909   8.721
  215DIO     F111985   2.510   8.586   6.973
  215DIO     C111986   2.433   8.691   6.938
  215DIO     C211987   2.289   8.674   6.935
  215DIO     C311988   2.200   8.786   6.895
  215DIO     C411989   2.265   8.914   6.862
  215DIO     C511990   2.410   8.928   6.866
  215DIO     F211991   2.465   9.048   6.839
  215DIO     C611992   2.493   8.817   6.905
  215DIO     F311993   2.627   8.831   6.907
  215DIO     C711994   2.054   8.771   6.890
  215DIO     C811995   1.976   8.811   6.770
  215DIO     C911996   1.832   8.797   6.765
  215DIO    C1011997   1.759   8.751   6.882
  215DIO    C1111998   1.832   8.703   6.998
  215DIO    C1211999   1.976   8.715   7.002
  215DIO     F412000   2.041   8.675   7.114
  215DIO     O112001   1.627   8.717   6.863
  215DIO    C1312002   1.532   8.738   6.963
  215DIO     O212003   1.532   8.811   7.065
  215DIO    C1412004   1.403   8.676   6.932
  215DIO    C1512005   1.337   8.693   6.801
  215DIO     F512006   1.400   8.760   6.702
  215DIO    C1612007   1.206   8.637   6.772
  215DIO    C1712008   1.130   8.567   6.875
  215DIO    C1812009   1.199   8.534   6.999
  215DIO    C1912010   1.331   8.589   7.028
  215DIO     F612011   1.393   8.542   7.138
  215DIO    C2012012   0.990   8.519   6.849
  215DIO     O312013   0.920   8.594   6.749
  215DIO    C2112014   0.876   8.721   6.796
  215DIO    C2212015   0.787   8.706   6.920
  215DIO    C2312016   0.868   8.627   7.023
  215DIO     O412017   0.912   8.503   6.969
  215DIO    C2412018   0.655   8.633   6.890
  215DIO    C2512019   0.564   8.699   6.785
  215DIO    C2612020   0.526   8.842   6.819
  215DIO     H112021   2.246   8.578   6.962
  215DIO     H212022   2.205   9.002   6.841
  215DIO     H312023   2.028   8.848   6.682
  215DIO     H412024   1.777   8.819   6.675
  215DIO     H512025   1.777   8.664   7.083
  215DIO     H612026   1.168   8.646   6.671
  215DIO     H712027   1.156   8.464   7.070
  215DIO     H812028   0.999   8.418   6.808
  215DIO     H912029   0.963   8.784   6.819
  215DIO    H1012030   0.824   8.771   6.715
  215DIO    H1112031   0.765   8.805   6.960
  215DIO    H1212032   0.807   8.605   7.111
  215DIO    H1312033   0.954   8.686   7.058
  215DIO    H1412034   0.675   8.530   6.857
  215DIO    H1512035   0.598   8.624   6.984
  215DIO    H1612036   0.611   8.696   6.687
  215DIO    H1712037   0.472   8.639   6.777
  215DIO    H1812038   0.482   8.849   6.919
  215DIO    H1912039   0.612   8.909   6.814
  215DIO    H2012040   0.452   8.879   6.747
  216DIO     F112041   4.462   6.306   8.193
  216DIO     C112042   4.384   6.217   8.129
  216DIO     C212043   4.240   6.224   8.144
  216DIO     C312044   4.151   6.126   8.076
  216DIO     C412045   4.217   6.025   7.991
  216DIO     C512046   4.361   6.020   7.977
  216DIO     F212047   4.416   5.929   7.895
  216DIO     C612048   4.445   6.116   8.045
  216DIO     F312049   4.578   6.110   8.032
  216DIO     C712050   4.005   6.131   8.092
  216DIO     C812051   3.928   6.010   8.128
  216DIO     C912052   3.783   6.014   8.142
  216DIO    C1012053   3.710   6.136   8.112
  216DIO    C1112054   3.783   6.259   8.084
  216DIO    C1212055   3.927   6.255   8.072
  216DIO     F412056   3.992   6.369   8.040
  216DIO     O112057   3.578   6.139   8.151
  216DIO    C1312058   3.484   6.209   8.076
  216DIO     O212059   3.483   6.251   7.957
  216DIO    C1412060   3.354   6.221   8.144
  216DIO    C1512061   3.288   6.104   8.206
  216DIO     F512062   3.351   5.984   8.209
  216DIO    C1612063   3.157   6.112   8.269
  216DIO    C1712064   3.082   6.236   8.266
  216DIO    C1812065   3.150   6.357   8.221
  216DIO    C1912066   3.282   6.349   8.160
  216DIO     F612067   3.344   6.466   8.134
  216DIO    C2012068   2.941   6.244   8.320
  216DIO     O312069   2.871   6.119   8.317
  216DIO    C2112070   2.827   6.084   8.186
  216DIO    C2212071   2.739   6.193   8.127
  216DIO    C2312072   2.819   6.322   8.131
  216DIO     O412073   2.864   6.350   8.264
  216DIO    C2412074   2.606   6.211   8.204
  216DIO    C2512075   2.515   6.087   8.211
  216DIO    C2612076   2.477   6.032   8.075
  216DIO     H112077   4.197   6.301   8.207
  216DIO     H212078   4.156   5.957   7.931
  216DIO     H312079   3.979   5.917   8.149
  216DIO     H412080   3.728   5.928   8.177
  216DIO     H512081   3.728   6.350   8.066
  216DIO     H612082   3.119   6.024   8.320
  216DIO     H712083   3.107   6.455   8.237
  216DIO     H812084   2.951   6.268   8.427
  216DIO     H912085   2.914   6.066   8.122
  216DIO    H1012086   2.775   5.988   8.193
  216DIO    H1112087   2.716   6.169   8.023
  216DIO    H1212088   2.758   6.407   8.098
  216DIO    H1312089   2.905   6.317   8.064
  216DIO    H1412090   2.626   6.243   8.307
  216DIO    H1512091   2.549   6.292   8.157
  216DIO    H1612092   2.562   6.009   8.270
  216DIO    H1712093   2.423   6.115   8.264
  216DIO    H1812094   2.433   6.109   8.011
  216DIO    H1912095   2.563   5.989   8.023
  216DIO    H2012096   2.403   5.952   8.086
  217DIO     F112097   4.155   8.117   5.096
  217DIO     C112098   4.077   8.148   4.990
  217DIO     C212099   3.933   8.136   5.002
  217DIO     C312100   3.844   8.167   4.887
  217DIO     C412101   3.910   8.213   4.763
  217DIO     C512102   4.054   8.225   4.754
  217DIO     F212103   4.109   8.271   4.640
  217DIO     C612104   4.138   8.193   4.867
  217DIO     F312105   4.272   8.203   4.857
  217DIO     C712106   3.698   8.154   4.897
  217DIO     C812107   3.621   8.079   4.795
  217DIO     C912108   3.476   8.067   4.804
  217DIO    C1012109   3.403   8.136   4.908
  217DIO    C1112110   3.476   8.204   5.014
  217DIO    C1212111   3.620   8.214   5.007
  217DIO     F412112   3.685   8.282   5.103
  217DIO     O112113   3.271   8.101   4.925
  217DIO    C1312114   3.177   8.195   4.965
  217DIO     O212115   3.176   8.321   4.964
  217DIO    C1412116   3.048   8.134   4.999
  217DIO    C1512117   2.981   8.037   4.910
  217DIO     F512118   3.044   7.994   4.798
  217DIO    C1612119   2.851   7.981   4.938
  217DIO    C1712120   2.775   8.025   5.055
  217DIO    C1812121   2.844   8.108   5.153
  217DIO    C1912122   2.975   8.163   5.125
  217DIO     F612123   3.038   8.227   5.226
  217DIO    C2012124   2.634   7.976   5.080
  217DIO     O312125   2.564   7.937   4.961
  217DIO    C2112126   2.521   8.049   4.884
  217DIO    C2212127   2.432   8.141   4.967
  217DIO    C2312128   2.513   8.181   5.090
  217DIO     O412129   2.557   8.065   5.161
  217DIO    C2412130   2.299   8.075   5.010
  217DIO    C2512131   2.208   8.027   4.896
  217DIO    C2612132   2.170   8.136   4.798
  217DIO     H112133   3.890   8.103   5.096
  217DIO     H212134   3.849   8.247   4.679
  217DIO     H312135   3.672   8.028   4.715
  217DIO     H412136   3.421   8.005   4.734
  217DIO     H512137   3.422   8.251   5.095
  217DIO     H612138   2.812   7.903   4.873
  217DIO     H712139   2.801   8.126   5.251
  217DIO     H812140   2.644   7.884   5.139
  217DIO     H912141   2.607   8.104   4.845
  217DIO    H1012142   2.468   8.010   4.796
  217DIO    H1112143   2.409   8.231   4.909
  217DIO    H1212144   2.451   8.240   5.159
  217DIO    H1312145   2.599   8.243   5.063
  217DIO    H1412146   2.319   7.989   5.075
  217DIO    H1512147   2.243   8.147   5.070
  217DIO    H1612148   2.256   7.944   4.842
  217DIO    H1712149   2.117   7.986   4.940
  217DIO    H1812150   2.126   8.222   4.849
  217DIO    H1912151   2.256   8.171   4.740
  217DIO    H2012152   2.096   8.098   4.726
  218DIO     F112153   9.179   0.725   3.766
  218DIO     C112154   9.102   0.739   3.875
  218DIO     C212155   8.958   0.746   3.859
  218DIO     C312156   8.869   0.764   3.977
  218DIO     C412157   8.934   0.772   4.109
  218DIO     C512158   9.079   0.765   4.122
  218DIO     F212159   9.134   0.769   4.245
  218DIO     C612160   9.162   0.748   4.006
  218DIO     F312161   9.296   0.743   4.019
  218DIO     C712162   8.722   0.772   3.963
  218DIO     C812163   8.645   0.882   4.025
  218DIO     C912164   8.501   0.889   4.012
  218DIO    C1012165   8.428   0.783   3.945
  218DIO    C1112166   8.500   0.678   3.876
  218DIO    C1212167   8.645   0.672   3.887
  218DIO     F412168   8.709   0.570   3.827
  218DIO     O112169   8.296   0.809   3.916
  218DIO    C1312170   8.201   0.706   3.917
  218DIO     O212171   8.200   0.592   3.969
  218DIO    C1412172   8.072   0.748   3.861
  218DIO    C1512173   8.006   0.874   3.903
  218DIO     F512174   8.068   0.958   3.988
  218DIO    C1612175   7.875   0.913   3.854
  218DIO    C1712176   7.799   0.825   3.766
  218DIO    C1812177   7.868   0.709   3.710
  218DIO    C1912178   8.000   0.671   3.758
  218DIO     F612179   8.062   0.571   3.692
  218DIO    C2012180   7.659   0.859   3.723
  218DIO     O312181   7.589   0.943   3.816
  218DIO    C2112182   7.545   0.873   3.932
  218DIO    C2212183   7.456   0.755   3.894
  218DIO    C2312184   7.537   0.668   3.797
  218DIO     O412185   7.581   0.745   3.685
  218DIO    C2412186   7.323   0.798   3.827
  218DIO    C2512187   7.233   0.888   3.912
  218DIO    C2612188   7.194   0.828   4.046
  218DIO     H112189   8.915   0.737   3.760
  218DIO     H212190   8.874   0.776   4.199
  218DIO     H312191   8.697   0.961   4.078
  218DIO     H412192   8.445   0.974   4.051
  218DIO     H512193   8.446   0.602   3.822
  218DIO     H612194   7.837   1.011   3.882
  218DIO     H712195   7.825   0.653   3.628
  218DIO     H812196   7.668   0.919   3.632
  218DIO     H912197   7.632   0.839   3.989
  218DIO    H1012198   7.492   0.944   3.996
  218DIO    H1112199   7.434   0.696   3.983
  218DIO    H1212200   7.476   0.586   3.759
  218DIO    H1312201   7.623   0.623   3.848
  218DIO    H1412202   7.343   0.850   3.733
  218DIO    H1512203   7.267   0.708   3.801
  218DIO    H1612204   7.280   0.986   3.928
  218DIO    H1712205   7.141   0.908   3.855
  218DIO    H1812206   7.150   0.729   4.034
  218DIO    H1912207   7.281   0.820   4.113
  218DIO    H2012208   7.121   0.892   4.096
  219DIO     F112209   6.513   7.286   7.141
  219DIO     C112210   6.436   7.299   7.032
  219DIO     C212211   6.292   7.289   7.046
  219DIO     C312212   6.203   7.300   6.928
  219DIO     C412213   6.268   7.325   6.797
  219DIO     C512214   6.413   7.335   6.786
  219DIO     F212215   6.468   7.361   6.666
  219DIO     C612216   6.496   7.322   6.903
  219DIO     F312217   6.630   7.331   6.892
  219DIO     C712218   6.056   7.289   6.939
  219DIO     C812219   5.979   7.198   6.851
  219DIO     C912220   5.835   7.187   6.862
  219DIO    C1012221   5.762   7.274   6.953
  219DIO    C1112222   5.834   7.359   7.046
  219DIO    C1212223   5.979   7.367   7.037
  219DIO     F412224   6.043   7.451   7.121
  219DIO     O112225   5.630   7.242   6.976
  219DIO    C1312226   5.535   7.341   6.999
  219DIO     O212227   5.534   7.465   6.977
  219DIO    C1412228   5.406   7.287   7.043
  219DIO    C1512229   5.340   7.176   6.972
  219DIO     F512230   5.402   7.114   6.869
  219DIO    C1612231   5.209   7.125   7.009
  219DIO    C1712232   5.133   7.189   7.116
  219DIO    C1812233   5.202   7.287   7.199
  219DIO    C1912234   5.334   7.336   7.162
  219DIO     F612235   5.396   7.416   7.251
  219DIO    C2012236   4.993   7.145   7.149
  219DIO     O312237   4.923   7.087   7.039
  219DIO    C2112238   4.879   7.183   6.944
  219DIO    C2212239   4.790   7.288   7.010
  219DIO    C2312240   4.871   7.348   7.125
  219DIO     O412241   4.915   7.246   7.215
  219DIO    C2412242   4.657   7.230   7.064
  219DIO    C2512243   4.567   7.164   6.959
  219DIO    C2612244   4.528   7.255   6.844
  219DIO     H112245   6.249   7.272   7.144
  219DIO     H212246   6.208   7.344   6.709
  219DIO     H312247   6.031   7.134   6.781
  219DIO     H412248   5.779   7.115   6.804
  219DIO     H512249   5.780   7.419   7.118
  219DIO     H612250   5.171   7.038   6.958
  219DIO     H712251   5.159   7.321   7.293
  219DIO     H812252   5.002   7.064   7.223
  219DIO     H912253   4.966   7.231   6.897
  219DIO    H1012254   4.826   7.131   6.864
  219DIO    H1112255   4.768   7.368   6.938
  219DIO    H1212256   4.810   7.418   7.183
  219DIO    H1312257   4.957   7.405   7.087
  219DIO    H1412258   4.677   7.157   7.143
  219DIO    H1512259   4.601   7.311   7.111
  219DIO    H1612260   4.614   7.073   6.920
  219DIO    H1712261   4.475   7.131   7.010
  219DIO    H1812262   4.484   7.349   6.881
  219DIO    H1912263   4.615   7.280   6.782
  219DIO    H2012264   4.455   7.206   6.780
  220DIO     F112265   5.782   3.897   8.179
  220DIO     C112266   5.704   3.990   8.238
  220DIO     C212267   5.560   3.982   8.223
  220DIO     C312268   5.471   4.083   8.285
  220DIO     C412269   5.537   4.190   8.364
  220DIO     C512270   5.681   4.195   8.378
  220DIO     F212271   5.736   4.292   8.454
  220DIO     C612272   5.765   4.096   8.315
  220DIO     F312273   5.898   4.102   8.328
  220DIO     C712274   5.325   4.078   8.270
  220DIO     C812275   5.248   4.197   8.226
  220DIO     C912276   5.103   4.192   8.212
  220DIO    C1012277   5.030   4.072   8.250
  220DIO    C1112278   5.103   3.951   8.285
  220DIO    C1212279   5.247   3.956   8.297
  220DIO     F412280   5.312   3.844   8.336
  220DIO     O112281   4.898   4.066   8.211
  220DIO    C1312282   4.804   4.001   8.290
  220DIO     O212283   4.803   3.967   8.411
  220DIO    C1412284   4.675   3.985   8.223
  220DIO    C1512285   4.608   4.098   8.154
  220DIO     F512286   4.671   4.217   8.143
  220DIO    C1612287   4.477   4.086   8.092
  220DIO    C1712288   4.402   3.962   8.102
  220DIO    C1812289   4.470   3.845   8.154
  220DIO    C1912290   4.602   3.856   8.215
  220DIO     F612291   4.665   3.741   8.248
  220DIO    C2012292   4.261   3.952   8.048
  220DIO     O312293   4.191   4.077   8.044
  220DIO    C2112294   4.148   4.119   8.173
  220DIO    C2212295   4.059   4.014   8.238
  220DIO    C2312296   4.139   3.884   8.242
  220DIO     O412297   4.184   3.849   8.111
  220DIO    C2412298   3.926   3.992   8.162
  220DIO    C2512299   3.835   4.114   8.148
  220DIO    C2612300   3.797   4.178   8.281
  220DIO     H112301   5.517   3.901   8.165
  220DIO     H212302   5.476   4.261   8.420
  220DIO     H312303   5.299   4.288   8.200
  220DIO     H412304   5.048   4.276   8.172
  220DIO     H512305   5.048   3.860   8.308
  220DIO     H612306   4.439   4.170   8.035
  220DIO     H712307   4.428   3.746   8.144
  220DIO     H812308   4.271   3.921   7.943
  220DIO     H912309   4.234   4.141   8.236
  220DIO    H1012310   4.095   4.214   8.160
  220DIO    H1112311   4.036   4.044   8.341
  220DIO    H1212312   4.078   3.802   8.280
  220DIO    H1312313   4.226   3.894   8.309
  220DIO    H1412314   3.946   3.952   8.062
  220DIO    H1512315   3.869   3.913   8.215
  220DIO    H1612316   3.883   4.189   8.084
  220DIO    H1712317   3.743   4.083   8.096
  220DIO    H1812318   3.753   4.104   8.349
  220DIO    H1912319   3.883   4.223   8.330
  220DIO    H2012320   3.723   4.257   8.264
  221DIO     F112321   9.834   3.851   3.376
  221DIO     C112322   9.757   3.825   3.269
  221DIO     C212323   9.612   3.820   3.285
  221DIO     C312324   9.524   3.790   3.171
  221DIO     C412325   9.589   3.767   3.040
  221DIO     C512326   9.733   3.772   3.027
  221DIO     F212327   9.789   3.755   2.905
  221DIO     C612328   9.817   3.802   3.140
  221DIO     F312329   9.951   3.806   3.127
  221DIO     C712330   9.377   3.783   3.186
  221DIO     C812331   9.300   3.667   3.135
  221DIO     C912332   9.155   3.661   3.149
  221DIO    C1012333   9.083   3.774   3.204
  221DIO    C1112334   9.155   3.886   3.262
  221DIO    C1212335   9.299   3.891   3.250
  221DIO     F412336   9.364   3.998   3.299
  221DIO     O112337   8.951   3.752   3.236
  221DIO    C1312338   8.856   3.853   3.224
  221DIO     O212339   8.855   3.962   3.160
  221DIO    C1412340   8.727   3.818   3.284
  221DIO    C1512341   8.661   3.688   3.256
  221DIO     F512342   8.723   3.595   3.181
  221DIO    C1612343   8.530   3.655   3.309
  221DIO    C1712344   8.454   3.752   3.387
  221DIO    C1812345   8.523   3.873   3.430
  221DIO    C1912346   8.655   3.906   3.378
  221DIO     F612347   8.717   4.012   3.433
  221DIO    C2012348   8.313   3.722   3.433
  221DIO     O312349   8.244   3.629   3.350
  221DIO    C2112350   8.200   3.686   3.227
  221DIO    C2212351   8.111   3.807   3.253
  221DIO    C2312352   8.192   3.904   3.339
  221DIO     O412353   8.236   3.840   3.459
  221DIO    C2412354   7.978   3.772   3.323
  221DIO    C2512355   7.888   3.673   3.249
  221DIO    C2612356   7.849   3.718   3.109
  221DIO     H112357   9.570   3.839   3.383
  221DIO     H212358   9.529   3.754   2.951
  221DIO     H312359   9.352   3.583   3.092
  221DIO     H412360   9.100   3.573   3.120
  221DIO     H512361   9.101   3.967   3.308
  221DIO     H612362   8.492   3.555   3.292
  221DIO     H712363   8.480   3.937   3.506
  221DIO     H812364   8.323   3.672   3.531
  221DIO     H912365   8.287   3.714   3.167
  221DIO    H1012366   8.147   3.609   3.171
  221DIO    H1112367   8.089   3.856   3.157
  221DIO    H1212368   8.131   3.990   3.368
  221DIO    H1312369   8.278   3.944   3.284
  221DIO    H1412370   7.998   3.731   3.423
  221DIO    H1512371   7.922   3.865   3.339
  221DIO    H1612372   7.935   3.574   3.244
  221DIO    H1712373   7.796   3.660   3.308
  221DIO    H1812374   7.805   3.818   3.110
  221DIO    H1912375   7.936   3.719   3.042
  221DIO    H2012376   7.776   3.649   3.066
  222DIO     F112377   6.354   4.590   5.375
  222DIO     C112378   6.276   4.667   5.297
  222DIO     C212379   6.132   4.651   5.301
  222DIO     C312380   6.043   4.732   5.215
  222DIO     C412381   6.109   4.831   5.126
  222DIO     C512382   6.253   4.846   5.124
  222DIO     F212383   6.308   4.940   5.045
  222DIO     C612384   6.337   4.765   5.209
  222DIO     F312385   6.471   4.778   5.205
  222DIO     C712386   5.897   4.716   5.217
  222DIO     C812387   5.820   4.698   5.092
  222DIO     C912388   5.675   4.683   5.094
  222DIO    C1012389   5.602   4.695   5.219
  222DIO    C1112390   5.675   4.706   5.344
  222DIO    C1212391   5.819   4.718   5.342
  222DIO     F412392   5.884   4.733   5.460
  222DIO     O112393   5.470   4.656   5.217
  222DIO    C1312394   5.376   4.721   5.296
  222DIO     O212395   5.375   4.832   5.355
  222DIO    C1412396   5.247   4.651   5.298
  222DIO    C1512397   5.180   4.607   5.174
  222DIO     F512398   5.243   4.621   5.055
  222DIO    C1612399   5.050   4.544   5.173
  222DIO    C1712400   4.974   4.528   5.296
  222DIO    C1812401   5.043   4.556   5.422
  222DIO    C1912402   5.174   4.617   5.423
  222DIO     F612403   5.237   4.626   5.542
  222DIO    C2012404   4.833   4.474   5.296
  222DIO     O312405   4.763   4.495   5.172
  222DIO    C2112406   4.720   4.629   5.157
  222DIO    C2212407   4.631   4.672   5.273
  222DIO    C2312408   4.712   4.649   5.401
  222DIO     O412409   4.756   4.514   5.409
  222DIO    C2412410   4.498   4.593   5.280
  222DIO    C2512411   4.407   4.605   5.157
  222DIO    C2612412   4.369   4.747   5.121
  222DIO     H112413   6.089   4.578   5.369
  222DIO     H212414   6.048   4.900   5.068
  222DIO     H312415   5.871   4.690   4.997
  222DIO     H412416   5.620   4.661   5.004
  222DIO     H512417   5.621   4.710   5.438
  222DIO     H612418   5.011   4.505   5.079
  222DIO     H712419   5.000   4.526   5.517
  222DIO     H812420   4.843   4.365   5.305
  222DIO     H912421   4.806   4.696   5.148
  222DIO    H1012422   4.667   4.637   5.061
  222DIO    H1112423   4.608   4.779   5.264
  222DIO    H1212424   4.650   4.670   5.489
  222DIO    H1312425   4.798   4.717   5.405
  222DIO    H1412426   4.518   4.487   5.298
  222DIO    H1512427   4.442   4.629   5.367
  222DIO    H1612428   4.455   4.557   5.070
  222DIO    H1712429   4.316   4.548   5.177
  222DIO    H1812430   4.325   4.799   5.207
  222DIO    H1912431   4.455   4.805   5.087
  222DIO    H2012432   4.295   4.747   5.040
  223DIO     F112433   9.619   0.190   2.967
  223DIO     C112434   9.541   0.155   3.072
  223DIO     C212435   9.397   0.168   3.061
  223DIO     C312436   9.308   0.133   3.174
  223DIO     C412437   9.374   0.082   3.297
  223DIO     C512438   9.518   0.070   3.305
  223DIO     F212439   9.573   0.020   3.417
  223DIO     C612440   9.602   0.106   3.193
  223DIO     F312441   9.735   0.096   3.203
  223DIO     C712442   9.162   0.146   3.165
  223DIO     C812443   9.085   0.217   3.269
  223DIO     C912444   8.940   0.230   3.261
  223DIO    C1012445   8.867   0.164   3.154
  223DIO    C1112446   8.940   0.100   3.046
  223DIO    C1212447   9.084   0.089   3.053
  223DIO     F412448   9.149   0.025   2.954
  223DIO     O112449   8.735   0.200   3.139
  223DIO    C1312450   8.641   0.107   3.095
  223DIO     O212451   8.640  -0.019   3.091
  223DIO    C1412452   8.512   0.169   3.063
  223DIO    C1512453   8.445   0.264   3.156
  223DIO     F512454   8.508   0.303   3.269
  223DIO    C1612455   8.314   0.321   3.129
  223DIO    C1712456   8.239   0.280   3.011
  223DIO    C1812457   8.307   0.201   2.910
  223DIO    C1912458   8.439   0.145   2.937
  223DIO     F612459   8.502   0.085   2.833
  223DIO    C2012460   8.098   0.330   2.988
  223DIO     O312461   8.028   0.365   3.108
  223DIO    C2112462   7.985   0.250   3.181
  223DIO    C2212463   7.896   0.161   3.095
  223DIO    C2312464   7.976   0.126   2.970
  223DIO     O412465   8.021   0.244   2.904
  223DIO    C2412466   7.763   0.229   3.055
  223DIO    C2512467   7.672   0.273   3.170
  223DIO    C2612468   7.634   0.160   3.264
  223DIO     H112469   9.354   0.204   2.968
  223DIO     H212470   9.313   0.045   3.379
  223DIO     H312471   9.136   0.265   3.351
  223DIO     H412472   8.885   0.289   3.333
  223DIO     H512473   8.885   0.056   2.963
  223DIO     H612474   8.276   0.396   3.197
  223DIO     H712475   8.265   0.187   2.812
  223DIO     H812476   8.108   0.424   2.932
  223DIO     H912477   8.071   0.194   3.218
  223DIO    H1012478   7.932   0.286   3.270
  223DIO    H1112479   7.873   0.069   3.150
  223DIO    H1212480   7.915   0.069   2.900
  223DIO    H1312481   8.063   0.063   2.996
  223DIO    H1412482   7.783   0.317   2.992
  223DIO    H1512483   7.706   0.159   2.992
  223DIO    H1612484   7.720   0.354   3.227
  223DIO    H1712485   7.580   0.315   3.128
  223DIO    H1812486   7.590   0.076   3.210
  223DIO    H1912487   7.720   0.123   3.321
  223DIO    H2012488   7.560   0.195   3.337
  224DIO     F112489   2.130   6.563   6.997
  224DIO     C112490   2.053   6.477   7.066
  224DIO     C212491   1.908   6.494   7.064
  224DIO     C312492   1.820   6.403   7.140
  224DIO     C412493   1.885   6.294   7.216
  224DIO     C512494   2.029   6.280   7.217
  224DIO     F212495   2.085   6.177   7.284
  224DIO     C612496   2.113   6.370   7.142
  224DIO     F312497   2.247   6.356   7.144
  224DIO     C712498   1.673   6.419   7.139
  224DIO     C812499   1.596   6.423   7.266
  224DIO     C912500   1.451   6.438   7.266
  224DIO    C1012501   1.379   6.440   7.140
  224DIO    C1112502   1.451   6.444   7.014
  224DIO    C1212503   1.595   6.432   7.015
  224DIO     F412504   1.660   6.431   6.896
  224DIO     O112505   1.247   6.478   7.146
  224DIO    C1312506   1.152   6.424   7.060
  224DIO     O212507   1.151   6.320   6.989
  224DIO    C1412508   1.023   6.493   7.066
  224DIO    C1512509   0.957   6.523   7.195
  224DIO     F512510   1.019   6.495   7.312
  224DIO    C1612511   0.826   6.585   7.204
  224DIO    C1712512   0.750   6.615   7.083
  224DIO    C1812513   0.819   6.602   6.955
  224DIO    C1912514   0.951   6.541   6.947
  224DIO     F612515   1.013   6.546   6.827
  224DIO    C2012516   0.609   6.669   7.090
  224DIO     O312517   0.540   6.634   7.210
  224DIO    C2112518   0.496   6.498   7.210
  224DIO    C2212519   0.407   6.469   7.089
  224DIO    C2312520   0.488   6.507   6.965
  224DIO     O412521   0.532   6.642   6.972
  224DIO    C2412522   0.274   6.548   7.091
  224DIO    C2512523   0.184   6.523   7.212
  224DIO    C2612524   0.145   6.377   7.231
  224DIO     H112525   1.866   6.574   7.005
  224DIO     H212526   1.825   6.219   7.266
  224DIO     H312527   1.648   6.419   7.361
  224DIO     H412528   1.396   6.449   7.358
  224DIO     H512529   1.397   6.451   6.921
  224DIO     H612530   0.788   6.612   7.301
  224DIO     H712531   0.776   6.643   6.864
  224DIO     H812532   0.619   6.778   7.093
  224DIO     H912533   0.583   6.431   7.210
  224DIO    H1012534   0.443   6.480   7.304
  224DIO    H1112535   0.385   6.362   7.085
  224DIO    H1212536   0.427   6.497   6.875
  224DIO    H1312537   0.574   6.440   6.952
  224DIO    H1412538   0.294   6.656   7.086
  224DIO    H1512539   0.218   6.524   7.001
  224DIO    H1612540   0.231   6.560   7.304
  224DIO    H1712541   0.092   6.582   7.199
  224DIO    H1812542   0.101   6.336   7.140
  224DIO    H1912543   0.232   6.316   7.258
  224DIO    H2012544   0.072   6.368   7.311
  225DIO     F112545   7.040   2.167   0.790
  225DIO     C112546   6.962   2.099   0.876
  225DIO     C212547   6.818   2.115   0.870
  225DIO     C312548   6.729   2.044   0.965
  225DIO     C412549   6.795   1.955   1.064
  225DIO     C512550   6.939   1.941   1.068
  225DIO     F212551   6.995   1.856   1.156
  225DIO     C612552   7.023   2.012   0.974
  225DIO     F312553   7.157   1.999   0.980
  225DIO     C712554   6.583   2.060   0.961
  225DIO     C812555   6.506   2.092   1.083
  225DIO     C912556   6.361   2.106   1.080
  225DIO    C1012557   6.289   2.080   0.957
  225DIO    C1112558   6.361   2.056   0.833
  225DIO    C1212559   6.505   2.044   0.836
  225DIO     F412560   6.570   2.016   0.722
  225DIO     O112561   6.156   2.119   0.954
  225DIO    C1312562   6.062   2.046   0.883
  225DIO     O212563   6.061   1.929   0.837
  225DIO    C1412564   5.933   2.115   0.873
  225DIO    C1512565   5.867   2.173   0.992
  225DIO     F512566   5.929   2.172   1.112
  225DIO    C1612567   5.736   2.236   0.986
  225DIO    C1712568   5.660   2.237   0.861
  225DIO    C1812569   5.729   2.196   0.740
  225DIO    C1912570   5.860   2.135   0.746
  225DIO     F612571   5.923   2.113   0.628
  225DIO    C2012572   5.519   2.292   0.856
  225DIO     O312573   5.450   2.284   0.981
  225DIO    C2112574   5.406   2.152   1.011
  225DIO    C2212575   5.317   2.097   0.900
  225DIO    C2312576   5.398   2.106   0.771
  225DIO     O412577   5.442   2.239   0.748
  225DIO    C2412578   5.184   2.175   0.885
  225DIO    C2512579   5.094   2.177   1.008
  225DIO    C2612580   5.055   2.039   1.060
  225DIO     H112581   6.776   2.180   0.795
  225DIO     H212582   6.734   1.893   1.129
  225DIO     H312583   6.557   2.109   1.177
  225DIO     H412584   6.306   2.138   1.167
  225DIO     H512585   6.307   2.042   0.741
  225DIO     H612586   5.698   2.284   1.075
  225DIO     H712587   5.686   2.216   0.642
  225DIO     H812588   5.529   2.399   0.835
  225DIO     H912589   5.493   2.087   1.027
  225DIO    H1012590   5.353   2.156   1.107
  225DIO    H1112591   5.294   1.992   0.921
  225DIO    H1212592   5.337   2.075   0.685
  225DIO    H1312593   5.484   2.038   0.774
  225DIO    H1412594   5.204   2.278   0.856
  225DIO    H1512595   5.128   2.130   0.802
  225DIO    H1612596   5.141   2.234   1.089
  225DIO    H1712597   5.002   2.232   0.982
  225DIO    H1812598   5.011   1.978   0.980
  225DIO    H1912599   5.142   1.986   1.100
  225DIO    H2012600   4.981   2.048   1.140
  226DIO     F112601   5.097   5.388   8.585
  226DIO     C112602   5.019   5.484   8.639
  226DIO     C212603   4.875   5.475   8.624
  226DIO     C312604   4.786   5.580   8.679
  226DIO     C412605   4.852   5.692   8.751
  226DIO     C512606   4.996   5.698   8.764
  226DIO     F212607   5.052   5.799   8.834
  226DIO     C612608   5.080   5.595   8.709
  226DIO     F312609   5.214   5.602   8.721
  226DIO     C712610   4.640   5.574   8.664
  226DIO     C812611   4.563   5.690   8.613
  226DIO     C912612   4.418   5.684   8.599
  226DIO    C1012613   4.346   5.566   8.645
  226DIO    C1112614   4.418   5.448   8.688
  226DIO    C1212615   4.562   5.454   8.700
  226DIO     F412616   4.627   5.345   8.746
  226DIO     O112617   4.213   5.558   8.607
  226DIO    C1312618   4.119   5.499   8.690
  226DIO     O212619   4.118   5.472   8.813
  226DIO    C1412620   3.990   5.478   8.623
  226DIO    C1512621   3.924   5.586   8.547
  226DIO     F512622   3.986   5.705   8.529
  226DIO    C1612623   3.793   5.571   8.486
  226DIO    C1712624   3.717   5.447   8.505
  226DIO    C1812625   3.786   5.334   8.565
  226DIO    C1912626   3.917   5.349   8.624
  226DIO     F612627   3.980   5.237   8.665
  226DIO    C2012628   3.576   5.433   8.452
  226DIO     O312629   3.507   5.558   8.439
  226DIO    C2112630   3.463   5.609   8.565
  226DIO    C2212631   3.374   5.508   8.637
  226DIO    C2312632   3.455   5.379   8.649
  226DIO     O412633   3.499   5.335   8.521
  226DIO    C2412634   3.241   5.481   8.563
  226DIO    C2512635   3.151   5.602   8.541
  226DIO    C2612636   3.112   5.674   8.669
  226DIO     H112637   4.833   5.391   8.572
  226DIO     H212638   4.791   5.766   8.802
  226DIO     H312639   4.614   5.779   8.581
  226DIO     H412640   4.363   5.765   8.554
  226DIO     H512641   4.364   5.359   8.717
  226DIO     H612642   3.755   5.651   8.424
  226DIO     H712643   3.743   5.234   8.561
  226DIO     H812644   3.586   5.395   8.349
  226DIO     H912645   3.550   5.635   8.626
  226DIO    H1012646   3.410   5.703   8.546
  226DIO    H1112647   3.351   5.545   8.737
  226DIO    H1212648   3.394   5.299   8.693
  226DIO    H1312649   3.541   5.393   8.716
  226DIO    H1412650   3.261   5.435   8.465
  226DIO    H1512651   3.185   5.406   8.620
  226DIO    H1612652   3.198   5.673   8.471
  226DIO    H1712653   3.059   5.568   8.491
  226DIO    H1812654   3.068   5.606   8.741
  226DIO    H1912655   3.199   5.723   8.715
  226DIO    H2012656   3.038   5.752   8.647
  227DIO     F112657   5.312   4.420   1.885
  227DIO     C112658   5.234   4.387   1.990
  227DIO     C212659   5.090   4.399   1.978
  227DIO     C312660   5.001   4.366   2.092
  227DIO     C412661   5.067   4.317   2.216
  227DIO     C512662   5.211   4.306   2.224
  227DIO     F212663   5.266   4.257   2.337
  227DIO     C612664   5.295   4.340   2.112
  227DIO     F312665   5.428   4.329   2.122
  227DIO     C712666   4.855   4.379   2.083
  227DIO     C812667   4.778   4.452   2.186
  227DIO     C912668   4.633   4.464   2.178
  227DIO    C1012669   4.560   4.397   2.072
  227DIO    C1112670   4.633   4.331   1.964
  227DIO    C1212671   4.777   4.321   1.972
  227DIO     F412672   4.842   4.254   1.874
  227DIO     O112673   4.428   4.432   2.056
  227DIO    C1312674   4.334   4.339   2.014
  227DIO     O212675   4.333   4.213   2.012
  227DIO    C1412676   4.204   4.400   1.981
  227DIO    C1512677   4.138   4.496   2.072
  227DIO     F512678   4.201   4.537   2.184
  227DIO    C1612679   4.007   4.553   2.045
  227DIO    C1712680   3.932   4.511   1.927
  227DIO    C1812681   4.000   4.430   1.828
  227DIO    C1912682   4.132   4.374   1.855
  227DIO     F612683   4.194   4.312   1.752
  227DIO    C2012684   3.791   4.560   1.903
  227DIO     O312685   3.721   4.597   2.023
  227DIO    C2112686   3.677   4.484   2.098
  227DIO    C2212687   3.589   4.393   2.013
  227DIO    C2312688   3.669   4.356   1.889
  227DIO     O412689   3.714   4.472   1.820
  227DIO    C2412690   3.456   4.460   1.971
  227DIO    C2512691   3.365   4.506   2.086
  227DIO    C2612692   3.327   4.394   2.182
  227DIO     H112693   5.047   4.434   1.885
  227DIO     H212694   5.006   4.282   2.298
  227DIO     H312695   4.829   4.501   2.267
  227DIO     H412696   4.578   4.525   2.248
  227DIO     H512697   4.578   4.285   1.883
  227DIO     H612698   3.969   4.629   2.111
  227DIO     H712699   3.957   4.414   1.729
  227DIO     H812700   3.801   4.653   1.846
  227DIO     H912701   3.764   4.428   2.135
  227DIO    H1012702   3.625   4.520   2.186
  227DIO    H1112703   3.566   4.302   2.069
  227DIO    H1212704   3.608   4.297   1.819
  227DIO    H1312705   3.755   4.293   1.915
  227DIO    H1412706   3.476   4.547   1.907
  227DIO    H1512707   3.399   4.389   1.909
  227DIO    H1612708   3.412   4.588   2.142
  227DIO    H1712709   3.273   4.548   2.043
  227DIO    H1812710   3.283   4.310   2.129
  227DIO    H1912711   3.413   4.359   2.239
  227DIO    H2012712   3.253   4.431   2.254
  228DIO     F112713   2.746   6.543   8.538
  228DIO     C112714   2.669   6.629   8.607
  228DIO     C212715   2.525   6.623   8.591
  228DIO     C312716   2.436   6.717   8.663
  228DIO     C412717   2.501   6.815   8.753
  228DIO     C512718   2.646   6.819   8.767
  228DIO     F212719   2.701   6.907   8.853
  228DIO     C612720   2.729   6.726   8.695
  228DIO     F312721   2.863   6.732   8.708
  228DIO     C712722   2.289   6.714   8.648
  228DIO     C812723   2.212   6.836   8.617
  228DIO     C912724   2.068   6.833   8.602
  228DIO    C1012725   1.995   6.710   8.627
  228DIO    C1112726   2.068   6.586   8.650
  228DIO    C1212727   2.212   6.589   8.662
  228DIO     F412728   2.277   6.474   8.689
  228DIO     O112729   1.863   6.708   8.588
  228DIO    C1312730   1.768   6.635   8.660
  228DIO     O212731   1.767   6.588   8.777
  228DIO    C1412732   1.639   6.626   8.591
  228DIO    C1512733   1.573   6.746   8.534
  228DIO     F512734   1.636   6.865   8.537
  228DIO    C1612735   1.442   6.741   8.472
  228DIO    C1712736   1.366   6.616   8.469
  228DIO    C1812737   1.435   6.494   8.509
  228DIO    C1912738   1.567   6.499   8.570
  228DIO     F612739   1.629   6.381   8.591
  228DIO    C2012740   1.226   6.611   8.414
  228DIO     O312741   1.156   6.736   8.423
  228DIO    C2112742   1.112   6.765   8.555
  228DIO    C2212743   1.023   6.653   8.609
  228DIO    C2312744   1.104   6.524   8.599
  228DIO     O412745   1.148   6.502   8.466
  228DIO    C2412746   0.891   6.639   8.532
  228DIO    C2512747   0.800   6.762   8.531
  228DIO    C2612748   0.761   6.812   8.669
  228DIO     H112749   2.482   6.549   8.525
  228DIO     H212750   2.441   6.880   8.816
  228DIO     H312751   2.264   6.930   8.600
  228DIO     H412752   2.013   6.920   8.572
  228DIO     H512753   2.013   6.493   8.663
  228DIO     H612754   1.404   6.830   8.424
  228DIO     H712755   1.392   6.396   8.488
  228DIO     H812756   1.235   6.591   8.307
  228DIO     H912757   1.199   6.780   8.621
  228DIO    H1012758   1.059   6.861   8.553
  228DIO    H1112759   1.001   6.673   8.715
  228DIO    H1212760   1.043   6.438   8.629
  228DIO    H1312761   1.190   6.526   8.667
  228DIO    H1412762   0.910   6.611   8.428
  228DIO    H1512763   0.834   6.556   8.576
  228DIO    H1612764   0.847   6.844   8.474
  228DIO    H1712765   0.708   6.737   8.476
  228DIO    H1812766   0.718   6.732   8.729
  228DIO    H1912767   0.848   6.852   8.723
  228DIO    H2012768   0.688   6.892   8.661
  229DIO     F112769   4.378   4.099   9.720
  229DIO     C112770   4.301   4.144   9.620
  229DIO     C212771   4.157   4.130   9.630
  229DIO     C312772   4.068   4.176   9.520
  229DIO     C412773   4.133   4.239   9.403
  229DIO     C512774   4.278   4.251   9.396
  229DIO     F212775   4.333   4.312   9.289
  229DIO     C612776   4.361   4.205   9.504
  229DIO     F312777   4.495   4.216   9.495
  229DIO     C712778   3.921   4.162   9.528
  229DIO     C812779   3.844   4.102   9.417
  229DIO     C912780   3.700   4.088   9.424
  229DIO    C1012781   3.627   4.143   9.537
  229DIO    C1112782   3.700   4.196   9.651
  229DIO    C1212783   3.844   4.207   9.645
  229DIO     F412784   3.909   4.262   9.750
  229DIO     O112785   3.495   4.106   9.549
  229DIO    C1312786   3.400   4.194   9.601
  229DIO     O212787   3.399   4.319   9.617
  229DIO    C1412788   3.271   4.129   9.627
  229DIO    C1512789   3.205   4.044   9.525
  229DIO     F512790   3.268   4.016   9.409
  229DIO    C1612791   3.074   3.985   9.546
  229DIO    C1712792   2.998   4.013   9.667
  229DIO    C1812793   3.067   4.083   9.776
  229DIO    C1912794   3.199   4.140   9.755
  229DIO     F612795   3.261   4.190   9.864
  229DIO    C2012796   2.858   3.962   9.686
  229DIO     O312797   2.788   3.939   9.563
  229DIO    C2112798   2.744   4.060   9.501
  229DIO    C2212799   2.655   4.140   9.596
  229DIO    C2312800   2.736   4.163   9.723
  229DIO     O412801   2.780   4.039   9.778
  229DIO    C2412802   2.523   4.069   9.629
  229DIO    C2512803   2.432   4.036   9.510
  229DIO    C2612804   2.393   4.158   9.427
  229DIO     H112805   4.114   4.085   9.718
  229DIO     H212806   4.073   4.283   9.325
  229DIO     H312807   3.896   4.062   9.331
  229DIO     H412808   3.645   4.036   9.347
  229DIO     H512809   3.645   4.232   9.737
  229DIO     H612810   3.036   3.916   9.471
  229DIO     H712811   3.024   4.087   9.875
  229DIO     H812812   2.867   3.863   9.732
  229DIO     H912813   2.831   4.119   9.470
  229DIO    H1012814   2.691   4.033   9.409
  229DIO    H1112815   2.633   4.237   9.551
  229DIO    H1212816   2.675   4.213   9.799
  229DIO    H1312817   2.822   4.228   9.704
  229DIO    H1412818   2.542   3.975   9.683
  229DIO    H1512819   2.466   4.132   9.699
  229DIO    H1612820   2.479   3.962   9.446
  229DIO    H1712821   2.340   3.990   9.548
  229DIO    H1812822   2.350   4.236   9.490
  229DIO    H1912823   2.480   4.200   9.375
  229DIO    H2012824   2.320   4.130   9.352
  230DIO     F112825   3.269   9.818   8.876
  230DIO     C112826   3.191   9.784   8.772
  230DIO     C212827   3.047   9.781   8.788
  230DIO     C312828   2.959   9.742   8.676
  230DIO     C412829   3.024   9.711   8.547
  230DIO     C512830   3.168   9.715   8.533
  230DIO     F212831   3.224   9.690   8.413
  230DIO     C612832   3.252   9.752   8.644
  230DIO     F312833   3.386   9.755   8.631
  230DIO     C712834   2.812   9.737   8.691
  230DIO     C812835   2.735   9.618   8.649
  230DIO     C912836   2.590   9.613   8.663
  230DIO    C1012837   2.518   9.729   8.710
  230DIO    C1112838   2.590   9.845   8.760
  230DIO    C1212839   2.734   9.849   8.748
  230DIO     F412840   2.799   9.959   8.790
  230DIO     O112841   2.386   9.709   8.744
  230DIO    C1312842   2.291   9.809   8.724
  230DIO     O212843   2.290   9.913   8.653
  230DIO    C1412844   2.162   9.778   8.786
  230DIO    C1512845   2.096   9.647   8.767
  230DIO     F512846   2.158   9.549   8.699
  230DIO    C1612847   1.965   9.617   8.822
  230DIO    C1712848   1.889   9.719   8.894
  230DIO    C1812849   1.958   9.843   8.929
  230DIO    C1912850   2.089   9.872   8.875
  230DIO     F612851   2.152   9.982   8.923
  230DIO    C2012852   1.748   9.693   8.942
  230DIO     O312853   1.679   9.594   8.866
  230DIO    C2112854   1.635   9.643   8.739
  230DIO    C2212855   1.546   9.766   8.756
  230DIO    C2312856   1.627   9.868   8.836
  230DIO     O412857   1.671   9.812   8.959
  230DIO    C2412858   1.413   9.735   8.829
  230DIO    C2512859   1.323   9.631   8.761
  230DIO    C2612860   1.284   9.667   8.619
  230DIO     H112861   3.005   9.806   8.884
  230DIO     H212862   2.963   9.692   8.459
  230DIO     H312863   2.787   9.531   8.611
  230DIO     H412864   2.535   9.522   8.640
  230DIO     H512865   2.536   9.929   8.800
  230DIO     H612866   1.927   9.516   8.812
  230DIO     H712867   1.915   9.912   9.000
  230DIO     H812868   1.758   9.650   9.043
  230DIO     H912869   1.722   9.666   8.677
  230DIO    H1012870   1.582   9.562   8.688
  230DIO    H1112871   1.524   9.808   8.658
  230DIO    H1212872   1.566   9.956   8.859
  230DIO    H1312873   1.713   9.903   8.778
  230DIO    H1412874   1.433   9.701   8.931
  230DIO    H1512875   1.357   9.828   8.839
  230DIO    H1612876   1.370   9.532   8.763
  230DIO    H1712877   1.231   9.622   8.821
  230DIO    H1812878   1.240   9.767   8.613
  230DIO    H1912879   1.371   9.663   8.552
  230DIO    H2012880   1.211   9.595   8.581
  231DIO     F112881   9.955   3.035   6.986
  231DIO     C112882   9.877   3.145   6.985
  231DIO     C212883   9.733   3.131   6.977
  231DIO     C312884   9.644   3.249   6.974
  231DIO     C412885   9.710   3.382   6.982
  231DIO     C512886   9.854   3.394   6.991
  231DIO     F212887   9.910   3.516   7.002
  231DIO     C612888   9.938   3.276   6.993
  231DIO     F312889  10.072   3.289   7.000
  231DIO     C712890   9.498   3.236   6.964
  231DIO     C812891   9.421   3.312   6.863
  231DIO     C912892   9.276   3.300   6.854
  231DIO    C1012893   9.204   3.220   6.951
  231DIO    C1112894   9.276   3.138   7.046
  231DIO    C1212895   9.420   3.149   7.054
  231DIO     F412896   9.485   3.076   7.147
  231DIO     O112897   9.071   3.194   6.921
  231DIO    C1312898   8.977   3.183   7.023
  231DIO     O212899   8.976   3.220   7.143
  231DIO    C1412900   8.848   3.133   6.975
  231DIO    C1512901   8.781   3.190   6.855
  231DIO     F512902   8.844   3.285   6.782
  231DIO    C1612903   8.651   3.147   6.810
  231DIO    C1712904   8.575   3.048   6.886
  231DIO    C1812905   8.644   2.978   6.994
  231DIO    C1912906   8.775   3.021   7.038
  231DIO     F612907   8.838   2.942   7.129
  231DIO    C2012908   8.434   3.010   6.847
  231DIO     O312909   8.364   3.112   6.775
  231DIO    C2112910   8.321   3.218   6.860
  231DIO    C2212911   8.232   3.166   6.972
  231DIO    C2312912   8.313   3.059   7.046
  231DIO     O412913   8.357   2.958   6.955
  231DIO    C2412914   8.099   3.105   6.921
  231DIO    C2512915   8.008   3.201   6.842
  231DIO    C2612916   7.970   3.326   6.919
  231DIO     H112917   9.691   3.031   6.972
  231DIO     H212918   9.649   3.471   6.990
  231DIO     H312919   9.472   3.375   6.791
  231DIO     H412920   9.221   3.349   6.775
  231DIO     H512921   9.222   3.075   7.115
  231DIO     H612922   8.613   3.187   6.717
  231DIO     H712923   8.601   2.889   7.039
  231DIO     H812924   8.444   2.927   6.776
  231DIO     H912925   8.407   3.271   6.901
  231DIO    H1012926   8.268   3.291   6.798
  231DIO    H1112927   8.209   3.247   7.042
  231DIO    H1212928   8.252   3.010   7.122
  231DIO    H1312929   8.399   3.103   7.097
  231DIO    H1412930   8.119   3.018   6.858
  231DIO    H1512931   8.043   3.068   7.007
  231DIO    H1612932   8.056   3.229   6.747
  231DIO    H1712933   7.917   3.147   6.816
  231DIO    H1812934   7.926   3.301   7.016
  231DIO    H1912935   8.057   3.391   6.935
  231DIO    H2012936   7.896   3.384   6.862
  232DIO     F112937   6.217   4.591   1.677
  232DIO     C112938   6.139   4.635   1.577
  232DIO     C212939   5.995   4.621   1.587
  232DIO     C312940   5.906   4.667   1.477
  232DIO     C412941   5.972   4.728   1.359
  232DIO     C512942   6.116   4.741   1.352
  232DIO     F212943   6.172   4.801   1.245
  232DIO     C612944   6.200   4.695   1.460
  232DIO     F312945   6.334   4.706   1.452
  232DIO     C712946   5.760   4.653   1.485
  232DIO     C812947   5.683   4.591   1.374
  232DIO     C912948   5.538   4.578   1.382
  232DIO    C1012949   5.466   4.634   1.494
  232DIO    C1112950   5.538   4.688   1.608
  232DIO    C1212951   5.682   4.699   1.602
  232DIO     F412952   5.747   4.754   1.706
  232DIO     O112953   5.333   4.597   1.506
  232DIO    C1312954   5.239   4.685   1.558
  232DIO     O212955   5.238   4.810   1.573
  232DIO    C1412956   5.110   4.620   1.584
  232DIO    C1512957   5.044   4.535   1.483
  232DIO     F512958   5.106   4.506   1.367
  232DIO    C1612959   4.913   4.476   1.504
  232DIO    C1712960   4.837   4.505   1.625
  232DIO    C1812961   4.906   4.575   1.733
  232DIO    C1912962   5.037   4.633   1.712
  232DIO     F612963   5.100   4.684   1.821
  232DIO    C2012964   4.696   4.454   1.644
  232DIO     O312965   4.627   4.430   1.521
  232DIO    C2112966   4.583   4.550   1.459
  232DIO    C2212967   4.494   4.631   1.553
  232DIO    C2312968   4.575   4.655   1.680
  232DIO     O412969   4.619   4.532   1.736
  232DIO    C2412970   4.361   4.560   1.587
  232DIO    C2512971   4.271   4.527   1.468
  232DIO    C2612972   4.232   4.648   1.384
  232DIO     H112973   5.953   4.577   1.676
  232DIO     H212974   5.911   4.772   1.281
  232DIO     H312975   5.734   4.551   1.288
  232DIO     H412976   5.483   4.526   1.305
  232DIO     H512977   5.484   4.725   1.694
  232DIO     H612978   4.875   4.407   1.430
  232DIO     H712979   4.863   4.580   1.833
  232DIO     H812980   4.706   4.355   1.691
  232DIO     H912981   4.670   4.609   1.428
  232DIO    H1012982   4.530   4.523   1.367
  232DIO    H1112983   4.471   4.728   1.507
  232DIO    H1212984   4.514   4.706   1.756
  232DIO    H1312985   4.661   4.720   1.661
  232DIO    H1412986   4.381   4.467   1.641
  232DIO    H1512987   4.305   4.624   1.656
  232DIO    H1612988   4.318   4.452   1.404
  232DIO    H1712989   4.179   4.481   1.507
  232DIO    H1812990   4.188   4.727   1.446
  232DIO    H1912991   4.319   4.689   1.332
  232DIO    H2012992   4.158   4.619   1.309
  233DIO     F112993   2.130   7.798   6.909
  233DIO     C112994   2.053   7.885   6.842
  233DIO     C212995   1.908   7.868   6.844
  233DIO     C312996   1.820   7.960   6.769
  233DIO     C412997   1.885   8.071   6.696
  233DIO     C512998   2.029   8.085   6.695
  233DIO     F212999   2.085   8.190   6.630
  233DIO     C613000   2.113   7.993   6.768
  233DIO     F313001   2.247   8.007   6.766
  233DIO     C713002   1.673   7.944   6.769
  233DIO     C813003   1.596   7.943   6.643
  233DIO     C913004   1.451   7.928   6.643
  233DIO    C1013005   1.379   7.923   6.769
  233DIO    C1113006   1.451   7.916   6.894
  233DIO    C1213007   1.595   7.929   6.894
  233DIO     F413008   1.660   7.928   7.012
  233DIO     O113009   1.247   7.885   6.761
  233DIO    C1313010   1.152   7.938   6.849
  233DIO     O213011   1.151   8.040   6.922
  233DIO    C1413012   1.023   7.869   6.841
  233DIO    C1513013   0.957   7.842   6.711
  233DIO     F513014   1.019   7.872   6.596
  233DIO    C1613015   0.826   7.780   6.702
  233DIO    C1713016   0.750   7.747   6.822
  233DIO    C1813017   0.819   7.757   6.950
  233DIO    C1913018   0.951   7.818   6.960
  233DIO     F613019   1.013   7.811   7.079
  233DIO    C2013020   0.609   7.693   6.814
  233DIO     O313021   0.540   7.731   6.695
  233DIO    C2113022   0.496   7.867   6.698
  233DIO    C2213023   0.407   7.893   6.819
  233DIO    C2313024   0.488   7.853   6.942
  233DIO     O413025   0.532   7.718   6.932
  233DIO    C2413026   0.274   7.814   6.815
  233DIO    C2513027   0.184   7.842   6.694
  233DIO    C2613028   0.145   7.988   6.679
  233DIO     H113029   1.866   7.786   6.901
  233DIO     H213030   1.825   8.147   6.648
  233DIO     H313031   1.648   7.949   6.548
  233DIO     H413032   1.396   7.919   6.550
  233DIO     H513033   1.397   7.907   6.987
  233DIO     H613034   0.788   7.755   6.604
  233DIO     H713035   0.776   7.714   7.040
  233DIO     H813036   0.619   7.584   6.808
  233DIO     H913037   0.583   7.934   6.698
  233DIO    H1013038   0.443   7.887   6.604
  233DIO    H1113039   0.385   8.000   6.825
  233DIO    H1213040   0.427   7.861   7.033
  233DIO    H1313041   0.574   7.919   6.956
  233DIO    H1413042   0.294   7.706   6.818
  233DIO    H1513043   0.218   7.837   6.906
  233DIO    H1613044   0.231   7.807   6.602
  233DIO    H1713045   0.092   7.783   6.706
  233DIO    H1813046   0.101   8.028   6.771
  233DIO    H1913047   0.232   8.050   6.653
  233DIO    H2013048   0.072   7.999   6.599
  234DIO     F113049   9.455   2.504   8.069
  234DIO     C113050   9.378   2.510   8.179
  234DIO     C213051   9.233   2.518   8.164
  234DIO     C313052   9.145   2.526   8.282
  234DIO     C413053   9.210   2.523   8.415
  234DIO     C513054   9.354   2.515   8.427
  234DIO     F213055   9.410   2.509   8.550
  234DIO     C613056   9.438   2.508   8.310
  234DIO     F313057   9.572   2.502   8.323
  234DIO     C713058   8.998   2.535   8.269
  234DIO     C813059   8.921   2.639   8.341
  234DIO     C913060   8.776   2.648   8.328
  234DIO    C1013061   8.704   2.548   8.253
  234DIO    C1113062   8.776   2.449   8.175
  234DIO    C1213063   8.920   2.442   8.186
  234DIO     F413064   8.985   2.345   8.117
  234DIO     O113065   8.572   2.576   8.225
  234DIO    C1313066   8.477   2.474   8.219
  234DIO     O213067   8.476   2.355   8.261
  234DIO    C1413068   8.348   2.520   8.166
  234DIO    C1513069   8.282   2.641   8.218
  234DIO     F513070   8.344   2.719   8.309
  234DIO    C1613071   8.151   2.685   8.173
  234DIO    C1713072   8.075   2.604   8.078
  234DIO    C1813073   8.144   2.493   8.012
  234DIO    C1913074   8.276   2.451   8.057
  234DIO     F613075   8.338   2.357   7.983
  234DIO    C2013076   7.934   2.642   8.038
  234DIO     O313077   7.865   2.718   8.137
  234DIO    C2113078   7.821   2.638   8.247
  234DIO    C2213079   7.732   2.524   8.199
  234DIO    C2313080   7.813   2.446   8.095
  234DIO     O413081   7.857   2.531   7.990
  234DIO    C2413082   7.599   2.572   8.136
  234DIO    C2513083   7.509   2.655   8.228
  234DIO    C2613084   7.470   2.584   8.357
  234DIO     H113085   9.191   2.517   8.065
  234DIO     H213086   9.150   2.519   8.505
  234DIO     H313087   8.973   2.714   8.400
  234DIO     H413088   8.721   2.729   8.374
  234DIO     H513089   8.722   2.377   8.115
  234DIO     H613090   8.113   2.780   8.208
  234DIO     H713091   8.101   2.444   7.926
  234DIO     H813092   7.944   2.709   7.952
  234DIO     H913093   7.908   2.599   8.301
  234DIO    H1013094   7.768   2.704   8.317
  234DIO    H1113095   7.710   2.458   8.283
  234DIO    H1213096   7.752   2.367   8.050
  234DIO    H1313097   7.899   2.396   8.142
  234DIO    H1413098   7.619   2.632   8.046
  234DIO    H1513099   7.543   2.484   8.103
  234DIO    H1613100   7.556   2.751   8.252
  234DIO    H1713101   7.417   2.679   8.173
  234DIO    H1813102   7.426   2.486   8.337
  234DIO    H1913103   7.557   2.571   8.423
  234DIO    H2013104   7.397   2.644   8.412
  235DIO     F113105   8.220   6.216   4.763
  235DIO     C113106   8.142   6.252   4.867
  235DIO     C213107   7.998   6.255   4.850
  235DIO     C313108   7.909   6.296   4.961
  235DIO     C413109   7.975   6.331   5.089
  235DIO     C513110   8.119   6.326   5.103
  235DIO     F213111   8.174   6.355   5.223
  235DIO     C613112   8.203   6.287   4.993
  235DIO     F313113   8.336   6.284   5.007
  235DIO     C713114   7.763   6.301   4.946
  235DIO     C813115   7.686   6.421   4.986
  235DIO     C913116   7.541   6.426   4.971
  235DIO    C1013117   7.468   6.309   4.927
  235DIO    C1113118   7.541   6.192   4.880
  235DIO    C1213119   7.685   6.188   4.892
  235DIO     F413120   7.750   6.076   4.853
  235DIO     O113121   7.336   6.328   4.893
  235DIO    C1313122   7.242   6.228   4.915
  235DIO     O213123   7.241   6.126   4.988
  235DIO    C1413124   7.113   6.258   4.852
  235DIO    C1513125   7.046   6.389   4.867
  235DIO     F513126   7.109   6.489   4.933
  235DIO    C1613127   6.915   6.418   4.812
  235DIO    C1713128   6.840   6.314   4.743
  235DIO    C1813129   6.908   6.190   4.711
  235DIO    C1913130   7.040   6.161   4.766
  235DIO     F613131   7.103   6.051   4.720
  235DIO    C2013132   6.699   6.339   4.694
  235DIO     O313133   6.629   6.440   4.768
  235DIO    C2113134   6.586   6.394   4.895
  235DIO    C2213135   6.497   6.271   4.882
  235DIO    C2313136   6.577   6.167   4.804
  235DIO     O413137   6.622   6.220   4.679
  235DIO    C2413138   6.364   6.300   4.808
  235DIO    C2513139   6.273   6.405   4.873
  235DIO    C2613140   6.235   6.373   5.017
  235DIO     H113141   7.955   6.227   4.754
  235DIO     H213142   7.914   6.352   5.177
  235DIO     H313143   7.737   6.509   5.021
  235DIO     H413144   7.486   6.517   4.992
  235DIO     H513145   7.486   6.107   4.841
  235DIO     H613146   6.877   6.519   4.819
  235DIO     H713147   6.866   6.118   4.642
  235DIO     H813148   6.709   6.380   4.592
  235DIO     H913149   6.672   6.372   4.959
  235DIO    H1013150   6.533   6.476   4.945
  235DIO    H1113151   6.474   6.231   4.981
  235DIO    H1213152   6.516   6.078   4.783
  235DIO    H1313153   6.664   6.133   4.863
  235DIO    H1413154   6.384   6.332   4.705
  235DIO    H1513155   6.307   6.206   4.801
  235DIO    H1613156   6.321   6.504   4.869
  235DIO    H1713157   6.181   6.413   4.813
  235DIO    H1813158   6.191   6.273   5.024
  235DIO    H1913159   6.321   6.378   5.083
  235DIO    H2013160   6.161   6.445   5.053
  236DIO     F113161   9.906   5.959   0.701
  236DIO     C113162   9.828   5.853   0.671
  236DIO     C213163   9.684   5.865   0.683
  236DIO     C313164   9.595   5.750   0.654
  236DIO     C413165   9.661   5.625   0.609
  236DIO     C513166   9.805   5.616   0.598
  236DIO     F213167   9.860   5.502   0.553
  236DIO     C613168   9.889   5.730   0.628
  236DIO     F313169  10.022   5.719   0.618
  236DIO     C713170   9.449   5.760   0.667
  236DIO     C813171   9.372   5.659   0.743
  236DIO     C913172   9.227   5.668   0.755
  236DIO    C1013173   9.154   5.772   0.684
  236DIO    C1113174   9.227   5.877   0.614
  236DIO    C1213175   9.371   5.869   0.604
  236DIO     F413176   9.436   5.965   0.535
  236DIO     O113177   9.022   5.789   0.719
  236DIO    C1313178   8.928   5.827   0.624
  236DIO     O213179   8.927   5.825   0.499
  236DIO    C1413180   8.798   5.862   0.685
  236DIO    C1513181   8.732   5.775   0.784
  236DIO     F513182   8.795   5.664   0.828
  236DIO    C1613183   8.601   5.804   0.839
  236DIO    C1713184   8.526   5.920   0.793
  236DIO    C1813185   8.594   6.017   0.709
  236DIO    C1913186   8.726   5.988   0.654
  236DIO     F613187   8.788   6.088   0.589
  236DIO    C2013188   8.385   5.946   0.841
  236DIO     O313189   8.315   5.827   0.882
  236DIO    C2113190   8.271   5.749   0.772
  236DIO    C2213191   8.183   5.830   0.678
  236DIO    C2313192   8.263   5.953   0.637
  236DIO     O413193   8.308   6.026   0.751
  236DIO    C2413194   8.050   5.874   0.744
  236DIO    C2513195   7.959   5.761   0.793
  236DIO    C2613196   7.921   5.661   0.685
  236DIO     H113197   9.641   5.960   0.715
  236DIO     H213198   9.600   5.541   0.577
  236DIO     H313199   9.423   5.580   0.795
  236DIO     H413200   9.172   5.599   0.818
  236DIO     H513201   9.172   5.957   0.566
  236DIO     H613202   8.563   5.740   0.918
  236DIO     H713203   8.551   6.114   0.689
  236DIO     H813204   8.395   6.006   0.933
  236DIO     H913205   8.358   5.709   0.718
  236DIO    H1013206   8.219   5.662   0.811
  236DIO    H1113207   8.160   5.771   0.589
  236DIO    H1213208   8.202   6.021   0.576
  236DIO    H1313209   8.349   5.924   0.575
  236DIO    H1413210   8.070   5.941   0.829
  236DIO    H1513211   7.993   5.934   0.671
  236DIO    H1613212   8.006   5.708   0.877
  236DIO    H1713213   7.867   5.806   0.834
  236DIO    H1813214   7.877   5.711   0.599
  236DIO    H1913215   8.007   5.603   0.652
  236DIO    H2013216   7.847   5.590   0.724
  237DIO     F113217   9.952   3.784   6.226
  237DIO     C113218   9.874   3.765   6.334
  237DIO     C213219   9.730   3.776   6.321
  237DIO     C313220   9.641   3.757   6.438
  237DIO     C413221   9.707   3.725   6.567
  237DIO     C513222   9.851   3.715   6.577
  237DIO     F213223   9.907   3.681   6.695
  237DIO     C613224   9.935   3.734   6.461
  237DIO     F313225  10.069   3.725   6.472
  237DIO     C713226   9.495   3.769   6.427
  237DIO     C813227   9.418   3.855   6.520
  237DIO     C913228   9.273   3.866   6.510
  237DIO    C1013229   9.201   3.785   6.414
  237DIO    C1113230   9.273   3.706   6.316
  237DIO    C1213231   9.417   3.697   6.325
  237DIO     F413232   9.482   3.619   6.236
  237DIO     O113233   9.068   3.819   6.394
  237DIO    C1313234   8.974   3.721   6.364
  237DIO     O213235   8.973   3.596   6.379
  237DIO    C1413236   8.845   3.777   6.324
  237DIO    C1513237   8.778   3.884   6.402
  237DIO     F513238   8.841   3.939   6.508
  237DIO    C1613239   8.648   3.937   6.367
  237DIO    C1713240   8.572   3.880   6.256
  237DIO    C1813241   8.641   3.786   6.168
  237DIO    C1913242   8.772   3.735   6.202
  237DIO     F613243   8.835   3.660   6.108
  237DIO    C2013244   8.431   3.925   6.226
  237DIO     O313245   8.361   3.977   6.340
  237DIO    C2113246   8.318   3.875   6.429
  237DIO    C2213247   8.229   3.774   6.356
  237DIO    C2313248   8.310   3.721   6.238
  237DIO     O413249   8.354   3.828   6.155
  237DIO    C2413250   8.096   3.835   6.306
  237DIO    C2513251   8.005   3.895   6.414
  237DIO    C2613252   7.967   3.797   6.524
  237DIO     H113253   9.688   3.798   6.224
  237DIO     H213254   9.646   3.701   6.654
  237DIO     H313255   9.469   3.914   6.595
  237DIO     H413256   9.218   3.935   6.573
  237DIO     H513257   9.219   3.650   6.241
  237DIO     H613258   8.610   4.021   6.423
  237DIO     H713259   8.598   3.758   6.072
  237DIO     H813260   8.441   4.010   6.157
  237DIO     H913261   8.404   3.825   6.473
  237DIO    H1013262   8.265   3.923   6.511
  237DIO    H1113263   8.206   3.691   6.424
  237DIO    H1213264   8.249   3.654   6.176
  237DIO    H1313265   8.396   3.663   6.272
  237DIO    H1413266   8.116   3.913   6.232
  237DIO    H1513267   8.040   3.757   6.254
  237DIO    H1613268   8.053   3.984   6.459
  237DIO    H1713269   7.914   3.931   6.366
  237DIO    H1813270   7.923   3.706   6.482
  237DIO    H1913271   8.054   3.769   6.585
  237DIO    H2013272   7.893   3.843   6.591
  238DIO     F113273   2.130   3.418   4.622
  238DIO     C113274   2.053   3.375   4.521
  238DIO     C213275   1.908   3.372   4.537
  238DIO     C313276   1.820   3.323   4.430
  238DIO     C413277   1.885   3.279   4.304
  238DIO     C513278   2.029   3.282   4.290
  238DIO     F213279   2.085   3.245   4.173
  238DIO     C613280   2.113   3.330   4.397
  238DIO     F313281   2.247   3.332   4.383
  238DIO     C713282   1.673   3.319   4.445
  238DIO     C813283   1.596   3.197   4.415
  238DIO     C913284   1.451   3.193   4.429
  238DIO    C1013285   1.379   3.313   4.465
  238DIO    C1113286   1.451   3.433   4.503
  238DIO    C1213287   1.595   3.436   4.491
  238DIO     F413288   1.660   3.550   4.521
  238DIO     O113289   1.247   3.297   4.501
  238DIO    C1313290   1.152   3.395   4.471
  238DIO     O213291   1.151   3.491   4.390
  238DIO    C1413292   1.023   3.370   4.536
  238DIO    C1513293   0.957   3.238   4.530
  238DIO     F513294   1.019   3.133   4.472
  238DIO    C1613295   0.826   3.213   4.588
  238DIO    C1713296   0.750   3.322   4.649
  238DIO    C1813297   0.819   3.448   4.671
  238DIO    C1913298   0.951   3.472   4.615
  238DIO     F613299   1.013   3.586   4.652
  238DIO    C2013300   0.609   3.300   4.700
  238DIO     O313301   0.540   3.194   4.633
  238DIO    C2113302   0.496   3.231   4.503
  238DIO    C2213303   0.407   3.354   4.507
  238DIO    C2313304   0.488   3.464   4.577
  238DIO     O413305   0.532   3.421   4.705
  238DIO    C2413306   0.274   3.331   4.583
  238DIO    C2513307   0.184   3.221   4.526
  238DIO    C2613308   0.145   3.243   4.380
  238DIO     H113309   1.866   3.408   4.631
  238DIO     H213310   1.825   3.251   4.219
  238DIO     H313311   1.648   3.106   4.386
  238DIO     H413312   1.396   3.101   4.415
  238DIO     H513313   1.397   3.521   4.535
  238DIO     H613314   0.788   3.112   4.588
  238DIO     H713315   0.776   3.525   4.735
  238DIO     H813316   0.619   3.267   4.804
  238DIO     H913317   0.583   3.248   4.438
  238DIO    H1013318   0.443   3.145   4.460
  238DIO    H1113319   0.385   3.387   4.405
  238DIO    H1213320   0.427   3.554   4.591
  238DIO    H1313321   0.574   3.494   4.516
  238DIO    H1413322   0.294   3.307   4.688
  238DIO    H1513323   0.218   3.425   4.583
  238DIO    H1613324   0.231   3.123   4.537
  238DIO    H1713325   0.092   3.218   4.586
  238DIO    H1813326   0.101   3.342   4.365
  238DIO    H1913327   0.232   3.232   4.314
  238DIO    H2013328   0.072   3.168   4.350
  239DIO     F113329   3.996   1.348   7.690
  239DIO     C113330   3.918   1.294   7.594
  239DIO     C213331   3.774   1.294   7.611
  239DIO     C313332   3.686   1.234   7.509
  239DIO     C413333   3.751   1.177   7.389
  239DIO     C513334   3.895   1.179   7.374
  239DIO     F213335   3.951   1.129   7.262
  239DIO     C613336   3.979   1.237   7.476
  239DIO     F313337   4.113   1.237   7.462
  239DIO     C713338   3.539   1.232   7.525
  239DIO     C813339   3.462   1.106   7.507
  239DIO     C913340   3.317   1.104   7.522
  239DIO    C1013341   3.245   1.228   7.545
  239DIO    C1113342   3.317   1.351   7.570
  239DIO    C1213343   3.461   1.353   7.558
  239DIO     F413344   3.526   1.469   7.576
  239DIO     O113345   3.113   1.215   7.582
  239DIO    C1313346   3.018   1.309   7.542
  239DIO     O213347   3.017   1.396   7.452
  239DIO    C1413348   2.889   1.291   7.610
  239DIO    C1513349   2.823   1.159   7.618
  239DIO     F513350   2.885   1.049   7.571
  239DIO    C1613351   2.692   1.141   7.678
  239DIO    C1713352   2.616   1.255   7.727
  239DIO    C1813353   2.685   1.383   7.736
  239DIO    C1913354   2.816   1.401   7.677
  239DIO     F613355   2.879   1.518   7.702
  239DIO    C2013356   2.475   1.239   7.779
  239DIO     O313357   2.406   1.127   7.724
  239DIO    C2113358   2.362   1.149   7.591
  239DIO    C2213359   2.273   1.273   7.583
  239DIO    C2313360   2.354   1.389   7.640
  239DIO     O413361   2.398   1.359   7.772
  239DIO    C2413362   2.140   1.257   7.660
  239DIO    C2513363   2.050   1.143   7.615
  239DIO    C2613364   2.011   1.148   7.468
  239DIO     H113365   3.732   1.339   7.700
  239DIO     H213366   3.690   1.140   7.306
  239DIO     H313367   3.514   1.013   7.488
  239DIO     H413368   3.262   1.011   7.518
  239DIO     H513369   3.263   1.442   7.593
  239DIO     H613370   2.654   1.040   7.688
  239DIO     H713371   2.642   1.466   7.791
  239DIO     H813372   2.485   1.217   7.887
  239DIO     H913373   2.449   1.160   7.525
  239DIO    H1013374   2.309   1.060   7.557
  239DIO    H1113375   2.251   1.295   7.478
  239DIO    H1213376   2.293   1.480   7.645
  239DIO    H1313377   2.440   1.412   7.576
  239DIO    H1413378   2.160   1.245   7.767
  239DIO    H1513379   2.084   1.351   7.651
  239DIO    H1613380   2.097   1.046   7.636
  239DIO    H1713381   1.958   1.146   7.675
  239DIO    H1813382   1.967   1.245   7.442
  239DIO    H1913383   2.098   1.131   7.403
  239DIO    H2013384   1.938   1.071   7.445
  240DIO     F113385   5.205   2.017   0.431
  240DIO     C113386   5.128   2.094   0.351
  240DIO     C213387   4.983   2.077   0.356
  240DIO     C313388   4.895   2.157   0.269
  240DIO     C413389   4.960   2.256   0.179
  240DIO     C513390   5.104   2.270   0.177
  240DIO     F213391   5.160   2.363   0.097
  240DIO     C613392   5.188   2.190   0.263
  240DIO     F313393   5.322   2.203   0.258
  240DIO     C713394   4.748   2.141   0.271
  240DIO     C813395   4.671   2.122   0.146
  240DIO     C913396   4.526   2.107   0.149
  240DIO    C1013397   4.454   2.121   0.273
  240DIO    C1113398   4.526   2.133   0.399
  240DIO    C1213399   4.670   2.145   0.397
  240DIO     F413400   4.735   2.161   0.514
  240DIO     O113401   4.322   2.082   0.272
  240DIO    C1313402   4.227   2.147   0.351
  240DIO     O213403   4.226   2.259   0.408
  240DIO    C1413404   4.098   2.077   0.353
  240DIO    C1513405   4.032   2.031   0.229
  240DIO     F513406   4.094   2.044   0.110
  240DIO    C1613407   3.901   1.969   0.229
  240DIO    C1713408   3.825   1.955   0.353
  240DIO    C1813409   3.894   1.983   0.478
  240DIO    C1913410   4.026   2.045   0.478
  240DIO     F613411   4.088   2.055   0.597
  240DIO    C2013412   3.684   1.900   0.353
  240DIO     O313413   3.615   1.920   0.229
  240DIO    C2113414   3.571   2.054   0.212
  240DIO    C2213415   3.482   2.098   0.328
  240DIO    C2313416   3.563   2.077   0.456
  240DIO     O413417   3.607   1.942   0.466
  240DIO    C2413418   3.349   2.019   0.335
  240DIO    C2513419   3.259   2.029   0.212
  240DIO    C2613420   3.220   2.172   0.175
  240DIO     H113421   4.941   2.005   0.425
  240DIO     H213422   4.900   2.324   0.120
  240DIO     H313423   4.723   2.113   0.052
  240DIO     H413424   4.471   2.084   0.058
  240DIO     H513425   4.472   2.137   0.492
  240DIO     H613426   3.863   1.929   0.135
  240DIO     H713427   3.851   1.954   0.573
  240DIO     H813428   3.694   1.791   0.363
  240DIO     H913429   3.658   2.120   0.203
  240DIO    H1013430   3.518   2.060   0.116
  240DIO    H1113431   3.460   2.205   0.318
  240DIO    H1213432   3.502   2.098   0.544
  240DIO    H1313433   3.649   2.145   0.459
  240DIO    H1413434   3.369   1.913   0.354
  240DIO    H1513435   3.293   2.056   0.422
  240DIO    H1613436   3.306   1.980   0.126
  240DIO    H1713437   3.167   1.972   0.233
  240DIO    H1813438   3.176   2.224   0.260
  240DIO    H1913439   3.307   2.229   0.140
  240DIO    H2013440   3.147   2.171   0.094
  241DIO     F113441   8.171   0.640   7.353
  241DIO     C113442   8.093   0.640   7.463
  241DIO     C213443   7.949   0.649   7.449
  241DIO     C313444   7.860   0.651   7.567
  241DIO     C413445   7.926   0.641   7.700
  241DIO     C513446   8.070   0.633   7.711
  241DIO     F213447   8.125   0.620   7.834
  241DIO     C613448   8.154   0.631   7.594
  241DIO     F313449   8.287   0.625   7.606
  241DIO     C713450   7.714   0.661   7.554
  241DIO     C813451   7.637   0.761   7.631
  241DIO     C913452   7.492   0.770   7.619
  241DIO    C1013453   7.419   0.674   7.539
  241DIO    C1113454   7.492   0.579   7.456
  241DIO    C1213455   7.636   0.571   7.466
  241DIO     F413456   7.701   0.479   7.392
  241DIO     O113457   7.287   0.703   7.513
  241DIO    C1313458   7.193   0.602   7.501
  241DIO     O213459   7.192   0.481   7.537
  241DIO    C1413460   7.064   0.651   7.451
  241DIO    C1513461   6.997   0.769   7.509
  241DIO     F513462   7.060   0.842   7.604
  241DIO    C1613463   6.866   0.815   7.466
  241DIO    C1713464   6.791   0.740   7.367
  241DIO    C1813465   6.859   0.632   7.296
  241DIO    C1913466   6.991   0.588   7.338
  241DIO     F613467   7.054   0.498   7.259
  241DIO    C2013468   6.650   0.779   7.329
  241DIO     O313469   6.580   0.850   7.432
  241DIO    C2113470   6.537   0.765   7.537
  241DIO    C2213471   6.448   0.653   7.484
  241DIO    C2313472   6.528   0.580   7.376
  241DIO     O413473   6.573   0.671   7.276
  241DIO    C2413474   6.315   0.705   7.424
  241DIO    C2513475   6.224   0.782   7.520
  241DIO    C2613476   6.186   0.705   7.645
  241DIO     H113477   7.906   0.654   7.349
  241DIO     H213478   7.865   0.633   7.789
  241DIO     H313479   7.688   0.832   7.694
  241DIO     H413480   7.437   0.849   7.669
  241DIO     H513481   7.437   0.511   7.392
  241DIO     H613482   6.828   0.908   7.506
  241DIO     H713483   6.817   0.588   7.207
  241DIO     H813484   6.660   0.851   7.246
  241DIO     H913485   6.623   0.723   7.590
  241DIO    H1013486   6.484   0.826   7.611
  241DIO    H1113487   6.425   0.583   7.564
  241DIO    H1213488   6.467   0.504   7.327
  241DIO    H1313489   6.615   0.529   7.420
  241DIO    H1413490   6.335   0.768   7.337
  241DIO    H1513491   6.258   0.618   7.386
  241DIO    H1613492   6.272   0.877   7.548
  241DIO    H1713493   6.132   0.809   7.466
  241DIO    H1813494   6.142   0.608   7.619
  241DIO    H1913495   6.272   0.688   7.709
  241DIO    H2013496   6.112   0.762   7.703
  242DIO     F113497   6.817   1.327   4.340
  242DIO     C113498   6.740   1.426   4.387
  242DIO     C213499   6.596   1.417   4.373
  242DIO     C313500   6.507   1.525   4.422
  242DIO     C413501   6.572   1.640   4.487
  242DIO     C513502   6.717   1.647   4.500
  242DIO     F213503   6.772   1.752   4.564
  242DIO     C613504   6.800   1.541   4.451
  242DIO     F313505   6.934   1.549   4.462
  242DIO     C713506   6.360   1.517   4.408
  242DIO     C813507   6.283   1.630   4.350
  242DIO     C913508   6.139   1.623   4.336
  242DIO    C1013509   6.066   1.509   4.389
  242DIO    C1113510   6.139   1.393   4.439
  242DIO    C1213511   6.283   1.399   4.450
  242DIO     F413512   6.348   1.293   4.503
  242DIO     O113513   5.934   1.498   4.351
  242DIO    C1313514   5.839   1.444   4.438
  242DIO     O213515   5.838   1.425   4.562
  242DIO    C1413516   5.710   1.420   4.373
  242DIO    C1513517   5.644   1.523   4.290
  242DIO     F513518   5.707   1.640   4.265
  242DIO    C1613519   5.513   1.503   4.230
  242DIO    C1713520   5.437   1.381   4.256
  242DIO    C1813521   5.506   1.272   4.322
  242DIO    C1913522   5.638   1.291   4.381
  242DIO     F613523   5.700   1.181   4.428
  242DIO    C2013524   5.297   1.364   4.204
  242DIO     O313525   5.227   1.488   4.184
  242DIO    C2113526   5.183   1.546   4.306
  242DIO    C2213527   5.094   1.450   4.384
  242DIO    C2313528   5.175   1.322   4.404
  242DIO     O413529   5.219   1.270   4.279
  242DIO    C2413530   4.962   1.418   4.312
  242DIO    C2513531   4.871   1.538   4.283
  242DIO    C2613532   4.832   1.618   4.406
  242DIO     H113533   6.553   1.329   4.326
  242DIO     H213534   6.512   1.718   4.534
  242DIO     H313535   6.335   1.717   4.312
  242DIO     H413536   6.084   1.701   4.286
  242DIO     H513537   6.084   1.306   4.473
  242DIO     H613538   5.475   1.580   4.164
  242DIO     H713539   5.463   1.172   4.325
  242DIO     H813540   5.306   1.321   4.104
  242DIO     H913541   5.270   1.576   4.366
  242DIO    H1013542   5.130   1.639   4.282
  242DIO    H1113543   5.072   1.493   4.482
  242DIO    H1213544   5.114   1.245   4.452
  242DIO    H1313545   5.261   1.340   4.470
  242DIO    H1413546   4.981   1.367   4.217
  242DIO    H1513547   4.905   1.347   4.374
  242DIO    H1613548   4.918   1.605   4.209
  242DIO    H1713549   4.779   1.501   4.235
  242DIO    H1813550   4.789   1.553   4.483
  242DIO    H1913551   4.919   1.669   4.449
  242DIO    H2013552   4.759   1.695   4.380
  243DIO     F113553   7.339   0.174   5.186
  243DIO     C113554   7.261   0.213   5.289
  243DIO     C213555   7.117   0.215   5.272
  243DIO     C313556   7.028   0.260   5.382
  243DIO     C413557   7.094   0.298   5.509
  243DIO     C513558   7.238   0.294   5.523
  243DIO     F213559   7.294   0.326   5.642
  243DIO     C613560   7.322   0.251   5.414
  243DIO     F313561   7.456   0.249   5.428
  243DIO     C713562   6.882   0.264   5.366
  243DIO     C813563   6.805   0.385   5.402
  243DIO     C913564   6.660   0.390   5.388
  243DIO    C1013565   6.588   0.271   5.347
  243DIO    C1113566   6.660   0.153   5.303
  243DIO    C1213567   6.804   0.150   5.315
  243DIO     F413568   6.869   0.037   5.280
  243DIO     O113569   6.455   0.290   5.312
  243DIO    C1313570   6.361   0.190   5.337
  243DIO     O213571   6.360   0.090   5.414
  243DIO    C1413572   6.232   0.218   5.273
  243DIO    C1513573   6.165   0.350   5.285
  243DIO     F513574   6.228   0.452   5.348
  243DIO    C1613575   6.035   0.377   5.229
  243DIO    C1713576   5.959   0.271   5.163
  243DIO    C1813577   6.028   0.146   5.135
  243DIO    C1913578   6.159   0.119   5.190
  243DIO     F613579   6.222   0.007   5.148
  243DIO    C2013580   5.818   0.295   5.113
  243DIO     O313581   5.748   0.398   5.184
  243DIO    C2113582   5.705   0.356   5.313
  243DIO    C2213583   5.616   0.232   5.303
  243DIO    C2313584   5.697   0.126   5.228
  243DIO     O413585   5.741   0.175   5.102
  243DIO    C2413586   5.483   0.259   5.229
  243DIO    C2513587   5.392   0.366   5.290
  243DIO    C2613588   5.354   0.338   5.435
  243DIO     H113589   7.075   0.185   5.177
  243DIO     H213590   7.033   0.322   5.596
  243DIO     H313591   6.856   0.475   5.436
  243DIO     H413592   6.605   0.481   5.406
  243DIO     H513593   6.606   0.067   5.268
  243DIO     H613594   5.997   0.478   5.233
  243DIO     H713595   5.985   0.073   5.067
  243DIO     H813596   5.828   0.333   5.011
  243DIO     H913597   5.791   0.335   5.377
  243DIO    H1013598   5.652   0.439   5.360
  243DIO    H1113599   5.593   0.195   5.403
  243DIO    H1213600   5.636   0.037   5.210
  243DIO    H1313601   5.783   0.093   5.288
  243DIO    H1413602   5.503   0.288   5.125
  243DIO    H1513603   5.427   0.165   5.224
  243DIO    H1613604   5.440   0.465   5.284
  243DIO    H1713605   5.301   0.372   5.230
  243DIO    H1813606   5.310   0.238   5.446
  243DIO    H1913607   5.441   0.345   5.501
  243DIO    H2013608   5.280   0.412   5.469
  244DIO     F113609   5.515   9.826   2.473
  244DIO     C113610   5.438   9.814   2.364
  244DIO     C213611   5.294   9.807   2.379
  244DIO     C313612   5.205   9.792   2.262
  244DIO     C413613   5.270   9.787   2.129
  244DIO     C513614   5.415   9.794   2.116
  244DIO     F213615   5.470   9.793   1.993
  244DIO     C613616   5.498   9.808   2.233
  244DIO     F313617   5.632   9.814   2.220
  244DIO     C713618   5.059   9.784   2.275
  244DIO     C813619   4.981   9.675   2.210
  244DIO     C913620   4.837   9.667   2.223
  244DIO    C1013621   4.764   9.772   2.292
  244DIO    C1113622   4.837   9.875   2.364
  244DIO    C1213623   4.981   9.882   2.353
  244DIO     F413624   5.046   9.982   2.416
  244DIO     O113625   4.632   9.746   2.321
  244DIO    C1313626   4.537   9.848   2.322
  244DIO     O213627   4.537   9.964   2.273
  244DIO    C1413628   4.408   9.805   2.377
  244DIO    C1513629   4.342   9.680   2.332
  244DIO     F513630   4.405   9.598   2.246
  244DIO    C1613631   4.211   9.640   2.380
  244DIO    C1713632   4.135   9.726   2.471
  244DIO    C1813633   4.204   9.840   2.529
  244DIO    C1913634   4.336   9.880   2.482
  244DIO     F613635   4.398   9.978   2.551
  244DIO    C2013636   3.995   9.690   2.513
  244DIO     O313637   3.925   9.609   2.418
  244DIO    C2113638   3.881   9.682   2.304
  244DIO    C2213639   3.792   9.799   2.345
  244DIO    C2313640   3.873   9.883   2.444
  244DIO     O413641   3.917   9.804   2.553
  244DIO    C2413642   3.660   9.754   2.410
  244DIO    C2513643   3.569   9.666   2.323
  244DIO    C2613644   3.531   9.729   2.190
  244DIO     H113645   5.251   9.813   2.478
  244DIO     H213646   5.210   9.786   2.039
  244DIO     H313647   5.033   9.597   2.155
  244DIO     H413648   4.782   9.584   2.182
  244DIO     H513649   4.782   9.950   2.420
  244DIO     H613650   4.173   9.543   2.350
  244DIO     H713651   4.161   9.894   2.613
  244DIO     H813652   4.004   9.628   2.602
  244DIO     H913653   3.968   9.717   2.247
  244DIO    H1013654   3.829   9.613   2.238
  244DIO    H1113655   3.770   9.860   2.257
  244DIO    H1213656   3.812   9.964   2.484
  244DIO    H1313657   3.959   9.929   2.394
  244DIO    H1413658   3.680   9.700   2.503
  244DIO    H1513659   3.603   9.844   2.438
  244DIO    H1613660   3.616   9.569   2.305
  244DIO    H1713661   3.477   9.645   2.380
  244DIO    H1813662   3.487   9.829   2.205
  244DIO    H1913663   3.617   9.739   2.124
  244DIO    H2013664   3.457   9.667   2.139
  245DIO     F113665   9.955   8.688   9.577
  245DIO     C113666   9.877   8.791   9.539
  245DIO     C213667   9.733   8.775   9.536
  245DIO     C313668   9.644   8.885   9.493
  245DIO     C413669   9.710   9.012   9.455
  245DIO     C513670   9.854   9.026   9.459
  245DIO     F213671   9.910   9.145   9.428
  245DIO     C613672   9.938   8.917   9.501
  245DIO     F313673  10.072   8.931   9.503
  245DIO     C713674   9.498   8.869   9.488
  245DIO     C813675   9.421   8.906   9.367
  245DIO     C913676   9.276   8.892   9.362
  245DIO    C1013677   9.204   8.850   9.481
  245DIO    C1113678   9.276   8.806   9.599
  245DIO    C1213679   9.420   8.818   9.602
  245DIO     F413680   9.485   8.781   9.715
  245DIO     O113681   9.071   8.815   9.462
  245DIO    C1313682   8.977   8.840   9.562
  245DIO     O213683   8.976   8.916   9.662
  245DIO    C1413684   8.848   8.776   9.533
  245DIO    C1513685   8.781   8.789   9.402
  245DIO     F513686   8.844   8.852   9.300
  245DIO    C1613687   8.651   8.732   9.374
  245DIO    C1713688   8.575   8.666   9.480
  245DIO    C1813689   8.644   8.637   9.605
  245DIO    C1913690   8.775   8.692   9.632
  245DIO     F613691   8.838   8.650   9.744
  245DIO    C2013692   8.434   8.616   9.456
  245DIO     O313693   8.364   8.688   9.353
  245DIO    C2113694   8.321   8.817   9.396
  245DIO    C2213695   8.232   8.806   9.520
  245DIO    C2313696   8.313   8.731   9.625
  245DIO     O413697   8.357   8.605   9.576
  245DIO    C2413698   8.099   8.732   9.492
  245DIO    C2513699   8.008   8.794   9.386
  245DIO    C2613700   7.970   8.938   9.415
  245DIO     H113701   9.691   8.680   9.566
  245DIO     H213702   9.649   9.099   9.432
  245DIO     H313703   9.472   8.940   9.278
  245DIO     H413704   9.221   8.911   9.271
  245DIO     H513705   9.222   8.769   9.685
  245DIO     H613706   8.613   8.738   9.273
  245DIO     H713707   8.601   8.569   9.678
  245DIO     H813708   8.444   8.514   9.417
  245DIO     H913709   8.407   8.880   9.417
  245DIO    H1013710   8.268   8.864   9.313
  245DIO    H1113711   8.209   8.906   9.557
  245DIO    H1213712   8.252   8.712   9.714
  245DIO    H1313713   8.399   8.790   9.658
  245DIO    H1413714   8.119   8.628   9.463
  245DIO    H1513715   8.043   8.726   9.586
  245DIO    H1613716   8.056   8.788   9.287
  245DIO    H1713717   7.917   8.734   9.379
  245DIO    H1813718   7.926   8.948   9.514
  245DIO    H1913719   8.057   9.005   9.408
  245DIO    H2013720   7.896   8.973   9.341
  246DIO     F113721   8.676   8.372   3.069
  246DIO     C113722   8.598   8.270   3.110
  246DIO     C213723   8.454   8.287   3.112
  246DIO     C313724   8.365   8.178   3.159
  246DIO     C413725   8.431   8.051   3.199
  246DIO     C513726   8.575   8.037   3.196
  246DIO     F213727   8.631   7.919   3.229
  246DIO     C613728   8.659   8.146   3.151
  246DIO     F313729   8.793   8.132   3.149
  246DIO     C713730   8.219   8.193   3.163
  246DIO     C813731   8.142   8.159   3.285
  246DIO     C913732   7.997   8.174   3.289
  246DIO    C1013733   7.925   8.213   3.169
  246DIO    C1113734   7.997   8.254   3.051
  246DIO    C1213735   8.141   8.242   3.047
  246DIO     F413736   8.206   8.276   2.934
  246DIO     O113737   7.792   8.248   3.187
  246DIO    C1313738   7.698   8.221   3.088
  246DIO     O213739   7.697   8.143   2.990
  246DIO    C1413740   7.569   8.285   3.115
  246DIO    C1513741   7.503   8.276   3.247
  246DIO     F513742   7.565   8.215   3.350
  246DIO    C1613743   7.372   8.333   3.273
  246DIO    C1713744   7.296   8.397   3.166
  246DIO    C1813745   7.365   8.423   3.040
  246DIO    C1913746   7.496   8.367   3.015
  246DIO     F613747   7.559   8.407   2.902
  246DIO    C2013748   7.155   8.447   3.189
  246DIO     O313749   7.086   8.377   3.293
  246DIO    C2113750   7.042   8.248   3.253
  246DIO    C2213751   6.953   8.256   3.130
  246DIO    C2313752   7.034   8.329   3.022
  246DIO     O413753   7.078   8.456   3.069
  246DIO    C2413754   6.820   8.331   3.155
  246DIO    C2513755   6.730   8.271   3.263
  246DIO    C2613756   6.691   8.126   3.238
  246DIO     H113757   8.412   8.381   3.080
  246DIO     H213758   8.370   7.965   3.224
  246DIO     H313759   8.193   8.128   3.374
  246DIO     H413760   7.942   8.157   3.380
  246DIO     H513761   7.943   8.288   2.964
  246DIO     H613762   7.334   8.330   3.375
  246DIO     H713763   7.322   8.489   2.966
  246DIO     H813764   7.165   8.550   3.225
  246DIO     H913765   7.129   8.184   3.234
  246DIO    H1013766   6.989   8.203   3.338
  246DIO    H1113767   6.930   8.155   3.094
  246DIO    H1213768   6.973   8.346   2.933
  246DIO    H1313769   7.120   8.268   2.990
  246DIO    H1413770   6.840   8.435   3.182
  246DIO    H1513771   6.764   8.334   3.061
  246DIO    H1613772   6.777   8.280   3.362
  246DIO    H1713773   6.638   8.331   3.268
  246DIO    H1813774   6.647   8.113   3.138
  246DIO    H1913775   6.778   8.060   3.246
  246DIO    H2013776   6.617   8.093   3.312
  247DIO     F113777   9.773   4.305   4.913
  247DIO     C113778   9.695   4.206   4.865
  247DIO     C213779   9.551   4.215   4.879
  247DIO     C313780   9.462   4.108   4.829
  247DIO     C413781   9.528   3.992   4.763
  247DIO     C513782   9.672   3.985   4.750
  247DIO     F213783   9.727   3.881   4.686
  247DIO     C613784   9.756   4.092   4.800
  247DIO     F313785   9.889   4.084   4.789
  247DIO     C713786   9.316   4.115   4.844
  247DIO     C813787   9.239   4.002   4.901
  247DIO     C913788   9.094   4.009   4.914
  247DIO    C1013789   9.021   4.123   4.863
  247DIO    C1113790   9.094   4.239   4.813
  247DIO    C1213791   9.238   4.233   4.802
  247DIO     F413792   9.303   4.340   4.750
  247DIO     O113793   8.889   4.134   4.900
  247DIO    C1313794   8.795   4.189   4.814
  247DIO     O213795   8.794   4.209   4.690
  247DIO    C1413796   8.666   4.212   4.879
  247DIO    C1513797   8.599   4.108   4.961
  247DIO     F513798   8.662   3.991   4.985
  247DIO    C1613799   8.468   4.127   5.021
  247DIO    C1713800   8.393   4.250   4.996
  247DIO    C1813801   8.461   4.360   4.930
  247DIO    C1913802   8.593   4.341   4.872
  247DIO     F613803   8.656   4.452   4.825
  247DIO    C2013804   8.252   4.266   5.049
  247DIO     O313805   8.182   4.143   5.067
  247DIO    C2113806   8.139   4.085   4.945
  247DIO    C2213807   8.050   4.182   4.868
  247DIO    C2313808   8.130   4.310   4.849
  247DIO     O413809   8.175   4.361   4.974
  247DIO    C2413810   7.917   4.213   4.940
  247DIO    C2513811   7.826   4.093   4.968
  247DIO    C2613812   7.788   4.014   4.844
  247DIO     H113813   9.508   4.303   4.926
  247DIO     H213814   9.467   3.915   4.716
  247DIO     H313815   9.290   3.915   4.938
  247DIO     H413816   9.039   3.930   4.964
  247DIO     H513817   9.039   4.326   4.779
  247DIO     H613818   8.430   4.051   5.087
  247DIO     H713819   8.419   4.459   4.929
  247DIO     H813820   8.262   4.310   5.149
  247DIO     H913821   8.225   4.056   4.885
  247DIO    H1013822   8.086   3.992   4.969
  247DIO    H1113823   8.027   4.140   4.769
  247DIO    H1213824   8.069   4.388   4.801
  247DIO    H1313825   8.217   4.293   4.783
  247DIO    H1413826   7.937   4.264   5.035
  247DIO    H1513827   7.860   4.285   4.879
  247DIO    H1613828   7.874   4.026   5.041
  247DIO    H1713829   7.734   4.130   5.016
  247DIO    H1813830   7.744   4.079   4.768
  247DIO    H1913831   7.874   3.963   4.801
  247DIO    H2013832   7.714   3.937   4.870
  248DIO     F113833   7.907   2.698   0.892
  248DIO     C113834   7.829   2.808   0.897
  248DIO     C213835   7.685   2.794   0.888
  248DIO     C313836   7.596   2.912   0.891
  248DIO     C413837   7.662   3.045   0.906
  248DIO     C513838   7.806   3.056   0.915
  248DIO     F213839   7.861   3.177   0.933
  248DIO     C613840   7.890   2.939   0.911
  248DIO     F313841   8.023   2.951   0.918
  248DIO     C713842   7.450   2.900   0.880
  248DIO     C813843   7.373   2.981   0.783
  248DIO     C913844   7.228   2.970   0.773
  248DIO    C1013845   7.155   2.885   0.866
  248DIO    C1113846   7.228   2.798   0.957
  248DIO    C1213847   7.372   2.808   0.965
  248DIO     F413848   7.437   2.730   1.054
  248DIO     O113849   7.023   2.861   0.836
  248DIO    C1313850   6.929   2.844   0.937
  248DIO     O213851   6.928   2.875   1.059
  248DIO    C1413852   6.799   2.796   0.886
  248DIO    C1513853   6.733   2.860   0.770
  248DIO     F513854   6.796   2.958   0.701
  248DIO    C1613855   6.602   2.819   0.722
  248DIO    C1713856   6.527   2.716   0.793
  248DIO    C1813857   6.595   2.641   0.897
  248DIO    C1913858   6.727   2.681   0.943
  248DIO     F613859   6.789   2.598   1.029
  248DIO    C2013860   6.386   2.680   0.752
  248DIO     O313861   6.316   2.786   0.685
  248DIO    C2113862   6.272   2.888   0.775
  248DIO    C2213863   6.184   2.829   0.885
  248DIO    C2313864   6.264   2.719   0.953
  248DIO     O413865   6.309   2.622   0.857
  248DIO    C2413866   6.051   2.772   0.830
  248DIO    C2513867   5.960   2.871   0.757
  248DIO    C2613868   5.922   2.992   0.840
  248DIO     H113869   7.642   2.695   0.878
  248DIO     H213870   7.601   3.134   0.919
  248DIO     H313871   7.424   3.047   0.715
  248DIO     H413872   7.173   3.023   0.697
  248DIO     H513873   7.173   2.731   1.022
  248DIO     H613874   6.564   2.863   0.631
  248DIO     H713875   6.552   2.550   0.937
  248DIO     H813876   6.396   2.601   0.676
  248DIO     H913877   6.359   2.938   0.819
  248DIO    H1013878   6.220   2.964   0.717
  248DIO    H1113879   6.161   2.907   0.959
  248DIO    H1213880   6.203   2.666   1.027
  248DIO    H1313881   6.350   2.760   1.006
  248DIO    H1413882   6.071   2.688   0.763
  248DIO    H1513883   5.994   2.730   0.915
  248DIO    H1613884   6.007   2.904   0.664
  248DIO    H1713885   5.868   2.818   0.727
  248DIO    H1813886   5.878   2.963   0.935
  248DIO    H1913887   6.008   3.056   0.860
  248DIO    H2013888   5.848   3.053   0.786
  249DIO     F113889   6.657   7.328   3.084
  249DIO     C113890   6.580   7.288   3.186
  249DIO     C213891   6.436   7.301   3.175
  249DIO     C313892   6.347   7.260   3.287
  249DIO     C413893   6.412   7.203   3.407
  249DIO     C513894   6.557   7.191   3.415
  249DIO     F213895   6.612   7.134   3.524
  249DIO     C613896   6.640   7.232   3.305
  249DIO     F313897   6.774   7.221   3.314
  249DIO     C713898   6.200   7.274   3.278
  249DIO     C813899   6.123   7.339   3.386
  249DIO     C913900   5.979   7.352   3.379
  249DIO    C1013901   5.906   7.292   3.268
  249DIO    C1113902   5.979   7.234   3.157
  249DIO    C1213903   6.123   7.223   3.164
  249DIO     F413904   6.188   7.163   3.061
  249DIO     O113905   5.774   7.329   3.255
  249DIO    C1313906   5.679   7.238   3.207
  249DIO     O213907   5.678   7.113   3.197
  249DIO    C1413908   5.550   7.302   3.178
  249DIO    C1513909   5.484   7.391   3.276
  249DIO     F513910   5.547   7.425   3.391
  249DIO    C1613911   5.353   7.450   3.252
  249DIO    C1713912   5.277   7.416   3.132
  249DIO    C1813913   5.346   7.342   3.027
  249DIO    C1913914   5.478   7.285   3.050
  249DIO     F613915   5.540   7.230   2.944
  249DIO    C2013916   5.137   7.466   3.111
  249DIO     O313917   5.067   7.495   3.233
  249DIO    C2113918   5.023   7.377   3.300
  249DIO    C2213919   4.934   7.292   3.210
  249DIO    C2313920   5.015   7.264   3.083
  249DIO     O413921   5.059   7.385   3.023
  249DIO    C2413922   4.802   7.362   3.173
  249DIO    C2513923   4.711   7.400   3.290
  249DIO    C2613924   4.672   7.282   3.379
  249DIO     H113925   6.393   7.342   3.085
  249DIO     H213926   6.352   7.162   3.487
  249DIO     H313927   6.175   7.383   3.471
  249DIO     H413928   5.924   7.408   3.454
  249DIO     H513929   5.924   7.194   3.072
  249DIO     H613930   5.315   7.522   3.324
  249DIO     H713931   5.303   7.332   2.928
  249DIO     H813932   5.146   7.563   3.061
  249DIO     H913933   5.110   7.319   3.334
  249DIO    H1013934   4.970   7.408   3.391
  249DIO    H1113935   4.912   7.197   3.259
  249DIO    H1213936   4.954   7.210   3.010
  249DIO    H1313937   5.101   7.199   3.105
  249DIO    H1413938   4.821   7.453   3.115
  249DIO    H1513939   4.745   7.296   3.106
  249DIO    H1613940   4.758   7.478   3.351
  249DIO    H1713941   4.619   7.445   3.250
  249DIO    H1813942   4.629   7.201   3.320
  249DIO    H1913943   4.759   7.243   3.433
  249DIO    H2013944   4.599   7.314   3.453
  250DIO     F113945   5.479   2.564   4.956
  250DIO     C113946   5.401   2.667   4.994
  250DIO     C213947   5.257   2.657   4.981
  250DIO     C313948   5.168   2.769   5.019
  250DIO     C413949   5.234   2.890   5.073
  250DIO     C513950   5.378   2.898   5.086
  250DIO     F213951   5.433   3.009   5.139
  250DIO     C613952   5.462   2.787   5.047
  250DIO     F313953   5.595   2.797   5.057
  250DIO     C713954   5.022   2.760   5.006
  250DIO     C813955   4.945   2.867   4.938
  250DIO     C913956   4.800   2.859   4.925
  250DIO    C1013957   4.727   2.750   4.988
  250DIO    C1113958   4.800   2.640   5.049
  250DIO    C1213959   4.944   2.647   5.059
  250DIO     F413960   5.009   2.546   5.121
  250DIO     O113961   4.595   2.736   4.951
  250DIO    C1313962   4.501   2.690   5.043
  250DIO     O213963   4.500   2.682   5.168
  250DIO    C1413964   4.371   2.659   4.980
  250DIO    C1513965   4.305   2.755   4.888
  250DIO     F513966   4.368   2.869   4.852
  250DIO    C1613967   4.174   2.730   4.830
  250DIO    C1713968   4.099   2.611   4.867
  250DIO    C1813969   4.167   2.507   4.944
  250DIO    C1913970   4.299   2.532   5.000
  250DIO     F613971   4.361   2.427   5.057
  250DIO    C2013972   3.958   2.589   4.817
  250DIO     O313973   3.888   2.710   4.786
  250DIO    C2113974   3.844   2.780   4.902
  250DIO    C2213975   3.756   2.691   4.989
  250DIO    C2313976   3.836   2.565   5.020
  250DIO     O413977   3.881   2.502   4.900
  250DIO    C2413978   3.623   2.653   4.920
  250DIO    C2513979   3.532   2.769   4.879
  250DIO    C2613980   3.494   2.860   4.995
  250DIO     H113981   5.214   2.565   4.942
  250DIO     H213982   5.173   2.971   5.112
  250DIO     H313983   4.996   2.950   4.892
  250DIO     H413984   4.745   2.932   4.868
  250DIO     H513985   4.745   2.556   5.090
  250DIO     H613986   4.136   2.800   4.757
  250DIO     H713987   4.124   2.409   4.955
  250DIO     H813988   3.968   2.536   4.721
  250DIO     H913989   3.931   2.815   4.959
  250DIO    H1013990   3.792   2.870   4.869
  250DIO    H1113991   3.733   2.743   5.082
  250DIO    H1213992   3.775   2.493   5.075
  250DIO    H1313993   3.922   2.589   5.084
  250DIO    H1413994   3.643   2.593   4.830
  250DIO    H1513995   3.566   2.587   4.988
  250DIO    H1613996   3.579   2.829   4.800
  250DIO    H1713997   3.440   2.728   4.835
  250DIO    H1813998   3.450   2.803   5.077
  250DIO    H1913999   3.580   2.915   5.033
  250DIO    H2014000   3.420   2.934   4.961
  251DIO     F114001   9.220   8.442   5.463
  251DIO     C114002   9.143   8.550   5.443
  251DIO     C214003   8.998   8.534   5.437
  251DIO     C314004   8.910   8.650   5.412
  251DIO     C414005   8.975   8.782   5.396
  251DIO     C514006   9.119   8.795   5.403
  251DIO     F214007   9.175   8.917   5.392
  251DIO     C614008   9.203   8.680   5.426
  251DIO     F314009   9.337   8.693   5.431
  251DIO     C714010   8.763   8.636   5.405
  251DIO     C814011   8.686   8.692   5.292
  251DIO     C914012   8.541   8.678   5.285
  251DIO    C1014013   8.469   8.617   5.395
  251DIO    C1114014   8.541   8.554   5.504
  251DIO    C1214015   8.685   8.566   5.509
  251DIO     F414016   8.750   8.511   5.614
  251DIO     O114017   8.337   8.586   5.371
  251DIO    C1314018   8.242   8.594   5.473
  251DIO     O214019   8.241   8.652   5.585
  251DIO    C1414020   8.113   8.536   5.435
  251DIO    C1514021   8.047   8.570   5.307
  251DIO     F514022   8.109   8.650   5.218
  251DIO    C1614023   7.916   8.519   5.270
  251DIO    C1714024   7.840   8.436   5.363
  251DIO    C1814025   7.909   8.387   5.482
  251DIO    C1914026   8.041   8.437   5.518
  251DIO     F614027   8.103   8.376   5.621
  251DIO    C2014028   7.699   8.391   5.331
  251DIO     O314029   7.630   8.479   5.242
  251DIO    C2114030   7.586   8.599   5.306
  251DIO    C2214031   7.497   8.567   5.426
  251DIO    C2314032   7.578   8.476   5.518
  251DIO     O414033   7.622   8.360   5.448
  251DIO    C2414034   7.364   8.499   5.387
  251DIO    C2514035   7.274   8.578   5.292
  251DIO    C2614036   7.235   8.716   5.344
  251DIO     H114037   8.956   8.435   5.451
  251DIO     H214038   8.915   8.871   5.388
  251DIO     H314039   8.738   8.740   5.210
  251DIO     H414040   8.486   8.712   5.198
  251DIO     H514041   8.487   8.504   5.583
  251DIO     H614042   7.878   8.541   5.171
  251DIO     H714043   7.866   8.308   5.543
  251DIO     H814044   7.709   8.297   5.277
  251DIO     H914045   7.673   8.658   5.337
  251DIO    H1014046   7.533   8.659   5.232
  251DIO    H1114047   7.475   8.660   5.480
  251DIO    H1214048   7.517   8.442   5.602
  251DIO    H1314049   7.664   8.529   5.560
  251DIO    H1414050   7.384   8.401   5.341
  251DIO    H1514051   7.308   8.478   5.479
  251DIO    H1614052   7.321   8.588   5.194
  251DIO    H1714053   7.182   8.520   5.276
  251DIO    H1814054   7.191   8.709   5.444
  251DIO    H1914055   7.322   8.783   5.349
  251DIO    H2014056   7.162   8.762   5.278
  252DIO     F114057   2.371   2.592   5.878
  252DIO     C114058   2.293   2.533   5.971
  252DIO     C214059   2.149   2.548   5.963
  252DIO     C314060   2.060   2.487   6.064
  252DIO     C414061   2.126   2.408   6.171
  252DIO     C514062   2.270   2.394   6.176
  252DIO     F214063   2.325   2.318   6.273
  252DIO     C614064   2.354   2.456   6.077
  252DIO     F314065   2.488   2.444   6.083
  252DIO     C714066   1.914   2.502   6.059
  252DIO     C814067   1.837   2.546   6.177
  252DIO     C914068   1.692   2.560   6.172
  252DIO    C1014069   1.619   2.522   6.052
  252DIO    C1114070   1.692   2.486   5.932
  252DIO    C1214071   1.836   2.474   5.936
  252DIO     F414072   1.901   2.435   5.825
  252DIO     O114073   1.487   2.560   6.046
  252DIO    C1314074   1.393   2.481   5.982
  252DIO     O214075   1.392   2.360   5.948
  252DIO    C1414076   1.264   2.549   5.966
  252DIO    C1514077   1.197   2.618   6.079
  252DIO     F514078   1.260   2.629   6.198
  252DIO    C1614079   1.067   2.680   6.066
  252DIO    C1714080   0.991   2.669   5.942
  252DIO    C1814081   1.060   2.616   5.825
  252DIO    C1914082   1.191   2.556   5.837
  252DIO     F614083   1.254   2.522   5.722
  252DIO    C2014084   0.850   2.723   5.932
  252DIO     O314085   0.780   2.727   6.057
  252DIO    C2114086   0.737   2.599   6.100
  252DIO    C2214087   0.648   2.533   5.995
  252DIO    C2314088   0.729   2.529   5.865
  252DIO     O414089   0.773   2.660   5.829
  252DIO    C2414090   0.515   2.609   5.972
  252DIO    C2514091   0.424   2.623   6.094
  252DIO    C2614092   0.386   2.491   6.159
  252DIO     H114093   2.106   2.606   5.881
  252DIO     H214094   2.065   2.353   6.242
  252DIO     H314095   1.888   2.572   6.268
  252DIO     H414096   1.637   2.600   6.256
  252DIO     H514097   1.638   2.462   5.841
  252DIO     H614098   1.028   2.736   6.150
  252DIO     H714099   1.017   2.626   5.726
  252DIO     H814100   0.860   2.827   5.900
  252DIO     H914101   0.823   2.536   6.122
  252DIO    H1014102   0.684   2.612   6.195
  252DIO    H1114103   0.625   2.431   6.025
  252DIO    H1214104   0.667   2.491   5.783
  252DIO    H1314105   0.815   2.462   5.875
  252DIO    H1414106   0.535   2.709   5.932
  252DIO    H1514107   0.459   2.556   5.894
  252DIO    H1614108   0.472   2.688   6.169
  252DIO    H1714109   0.333   2.675   6.063
  252DIO    H1814110   0.342   2.423   6.085
  252DIO    H1914111   0.472   2.442   6.204
  252DIO    H2014112   0.312   2.508   6.238
  253DIO     F114113   8.440   6.055   7.454
  253DIO     C114114   8.363   6.151   7.507
  253DIO     C214115   8.219   6.142   7.493
  253DIO     C314116   8.130   6.247   7.548
  253DIO     C414117   8.195   6.358   7.621
  253DIO     C514118   8.340   6.364   7.634
  253DIO     F214119   8.395   6.465   7.705
  253DIO     C614120   8.423   6.261   7.578
  253DIO     F314121   8.557   6.268   7.590
  253DIO     C714122   7.983   6.241   7.534
  253DIO     C814123   7.906   6.356   7.483
  253DIO     C914124   7.762   6.351   7.469
  253DIO    C1014125   7.689   6.233   7.514
  253DIO    C1114126   7.762   6.115   7.557
  253DIO    C1214127   7.906   6.120   7.568
  253DIO     F414128   7.971   6.011   7.613
  253DIO     O114129   7.557   6.225   7.476
  253DIO    C1314130   7.462   6.165   7.559
  253DIO     O214131   7.461   6.138   7.682
  253DIO    C1414132   7.333   6.145   7.492
  253DIO    C1514133   7.267   6.254   7.417
  253DIO     F514134   7.330   6.372   7.399
  253DIO    C1614135   7.136   6.238   7.356
  253DIO    C1714136   7.060   6.115   7.373
  253DIO    C1814137   7.129   6.001   7.432
  253DIO    C1914138   7.261   6.016   7.492
  253DIO     F614139   7.323   5.903   7.532
  253DIO    C2014140   6.920   6.101   7.320
  253DIO     O314141   6.850   6.226   7.309
  253DIO    C2114142   6.806   6.276   7.434
  253DIO    C2214143   6.717   6.175   7.506
  253DIO    C2314144   6.798   6.046   7.517
  253DIO     O414145   6.842   6.002   7.389
  253DIO    C2414146   6.585   6.148   7.432
  253DIO    C2514147   6.494   6.269   7.410
  253DIO    C2614148   6.455   6.341   7.539
  253DIO     H114149   8.176   6.058   7.440
  253DIO     H214150   8.135   6.432   7.672
  253DIO     H314151   7.958   6.446   7.451
  253DIO     H414152   7.707   6.432   7.425
  253DIO     H514153   7.707   6.026   7.585
  253DIO     H614154   7.098   6.319   7.294
  253DIO     H714155   7.086   5.901   7.428
  253DIO     H814156   6.929   6.064   7.217
  253DIO     H914157   6.893   6.302   7.496
  253DIO    H1014158   6.753   6.370   7.416
  253DIO    H1114159   6.695   6.211   7.607
  253DIO    H1214160   6.737   5.966   7.560
  253DIO    H1314161   6.884   6.059   7.584
  253DIO    H1414162   6.604   6.103   7.333
  253DIO    H1514163   6.528   6.073   7.488
  253DIO    H1614164   6.541   6.341   7.342
  253DIO    H1714165   6.402   6.236   7.360
  253DIO    H1814166   6.412   6.272   7.611
  253DIO    H1914167   6.542   6.389   7.585
  253DIO    H2014168   6.382   6.419   7.518
  254DIO     F114169   8.724   3.151   1.362
  254DIO     C114170   8.646   3.060   1.424
  254DIO     C214171   8.502   3.077   1.423
  254DIO     C314172   8.413   2.981   1.492
  254DIO     C414173   8.479   2.866   1.559
  254DIO     C514174   8.623   2.852   1.559
  254DIO     F214175   8.678   2.744   1.617
  254DIO     C614176   8.707   2.948   1.491
  254DIO     F314177   8.841   2.934   1.492
  254DIO     C714178   8.267   2.997   1.493
  254DIO     C814179   8.190   2.990   1.619
  254DIO     C914180   8.045   3.006   1.620
  254DIO    C1014181   7.972   3.018   1.495
  254DIO    C1114182   8.045   3.032   1.370
  254DIO    C1214183   8.189   3.019   1.369
  254DIO     F414184   8.254   3.027   1.251
  254DIO     O114185   7.840   3.056   1.504
  254DIO    C1314186   7.746   3.008   1.414
  254DIO     O214187   7.745   2.910   1.335
  254DIO    C1414188   7.617   3.076   1.426
  254DIO    C1514189   7.550   3.096   1.556
  254DIO     F514190   7.613   3.059   1.670
  254DIO    C1614191   7.420   3.157   1.570
  254DIO    C1714192   7.344   3.196   1.451
  254DIO    C1814193   7.413   3.194   1.323
  254DIO    C1914194   7.544   3.134   1.310
  254DIO     F614195   7.607   3.148   1.191
  254DIO    C2014196   7.203   3.250   1.463
  254DIO     O314197   7.133   3.205   1.579
  254DIO    C2114198   7.090   3.070   1.569
  254DIO    C2214199   7.001   3.051   1.446
  254DIO    C2314200   7.082   3.098   1.325
  254DIO     O414201   7.126   3.232   1.343
  254DIO    C2414202   6.868   3.129   1.455
  254DIO    C2514203   6.777   3.095   1.573
  254DIO    C2614204   6.739   2.948   1.580
  254DIO     H114205   8.459   3.162   1.370
  254DIO     H214206   8.418   2.788   1.602
  254DIO     H314207   8.241   2.979   1.713
  254DIO     H414208   7.990   3.009   1.713
  254DIO     H514209   7.991   3.046   1.277
  254DIO     H614210   7.381   3.177   1.669
  254DIO     H714211   7.370   3.242   1.236
  254DIO     H814212   7.213   3.359   1.475
  254DIO     H914213   7.176   3.003   1.564
  254DIO    H1014214   7.037   3.045   1.661
  254DIO    H1114215   6.978   2.945   1.434
  254DIO    H1214216   7.020   3.095   1.235
  254DIO    H1314217   7.168   3.033   1.308
  254DIO    H1414218   6.888   3.237   1.458
  254DIO    H1514219   6.812   3.112   1.362
  254DIO    H1614220   6.825   3.125   1.667
  254DIO    H1714221   6.686   3.154   1.565
  254DIO    H1814222   6.695   2.914   1.486
  254DIO    H1914223   6.825   2.885   1.603
  254DIO    H2014224   6.665   2.932   1.660
  255DIO     F114225   5.041   8.694   7.517
  255DIO     C114226   4.963   8.642   7.420
  255DIO     C214227   4.819   8.641   7.437
  255DIO     C314228   4.730   8.583   7.334
  255DIO     C414229   4.796   8.528   7.213
  255DIO     C514230   4.940   8.530   7.199
  255DIO     F214231   4.995   8.483   7.085
  255DIO     C614232   5.024   8.587   7.301
  255DIO     F314233   5.157   8.587   7.287
  255DIO     C714234   4.584   8.580   7.350
  255DIO     C814235   4.507   8.455   7.330
  255DIO     C914236   4.362   8.453   7.345
  255DIO    C1014237   4.289   8.576   7.370
  255DIO    C1114238   4.362   8.699   7.398
  255DIO    C1214239   4.506   8.701   7.385
  255DIO     F414240   4.571   8.817   7.406
  255DIO     O114241   4.157   8.562   7.407
  255DIO    C1314242   4.063   8.657   7.369
  255DIO     O214243   4.062   8.746   7.280
  255DIO    C1414244   3.934   8.638   7.436
  255DIO    C1514245   3.867   8.506   7.442
  255DIO     F514246   3.930   8.397   7.393
  255DIO    C1614247   3.736   8.487   7.501
  255DIO    C1714248   3.661   8.600   7.553
  255DIO    C1814249   3.729   8.728   7.564
  255DIO    C1914250   3.861   8.747   7.505
  255DIO     F614251   3.924   8.864   7.532
  255DIO    C2014252   3.520   8.583   7.605
  255DIO     O314253   3.450   8.472   7.548
  255DIO    C2114254   3.407   8.497   7.415
  255DIO    C2214255   3.318   8.620   7.409
  255DIO    C2314256   3.398   8.736   7.468
  255DIO     O414257   3.443   8.704   7.600
  255DIO    C2414258   3.185   8.604   7.486
  255DIO    C2514259   3.094   8.489   7.439
  255DIO    C2614260   3.056   8.498   7.292
  255DIO     H114261   4.776   8.684   7.527
  255DIO     H214262   4.735   8.493   7.130
  255DIO     H314263   4.558   8.363   7.309
  255DIO     H414264   4.307   8.360   7.339
  255DIO     H514265   4.307   8.789   7.422
  255DIO     H614266   3.698   8.386   7.510
  255DIO     H714267   3.687   8.810   7.621
  255DIO     H814268   3.530   8.560   7.711
  255DIO     H914269   3.493   8.508   7.349
  255DIO    H1014270   3.354   8.408   7.380
  255DIO    H1114271   3.295   8.644   7.304
  255DIO    H1214272   3.337   8.826   7.475
  255DIO    H1314273   3.485   8.760   7.405
  255DIO    H1414274   3.205   8.589   7.593
  255DIO    H1514275   3.128   8.697   7.478
  255DIO    H1614276   3.142   8.393   7.458
  255DIO    H1714277   3.002   8.491   7.499
  255DIO    H1814278   3.012   8.595   7.268
  255DIO    H1914279   3.142   8.482   7.227
  255DIO    H2014280   2.982   8.421   7.268
  256DIO     F114281   7.742   5.120   2.904
  256DIO     C114282   7.664   5.032   2.970
  256DIO     C214283   7.520   5.049   2.968
  256DIO     C314284   7.431   4.956   3.042
  256DIO     C414285   7.497   4.845   3.114
  256DIO     C514286   7.641   4.830   3.115
  256DIO     F214287   7.696   4.725   3.179
  256DIO     C614288   7.725   4.923   3.043
  256DIO     F314289   7.858   4.909   3.045
  256DIO     C714290   7.285   4.972   3.042
  256DIO     C814291   7.208   4.972   3.168
  256DIO     C914292   7.063   4.987   3.168
  256DIO    C1014293   6.990   4.993   3.043
  256DIO    C1114294   7.063   5.001   2.917
  256DIO    C1214295   7.207   4.989   2.917
  256DIO     F414296   7.272   4.991   2.799
  256DIO     O114297   6.858   5.031   3.051
  256DIO    C1314298   6.764   4.979   2.963
  256DIO     O214299   6.763   4.878   2.888
  256DIO    C1414300   6.634   5.048   2.971
  256DIO    C1514301   6.568   5.074   3.101
  256DIO     F514302   6.631   5.042   3.216
  256DIO    C1614303   6.437   5.136   3.111
  256DIO    C1714304   6.362   5.170   2.991
  256DIO    C1814305   6.430   5.161   2.863
  256DIO    C1914306   6.562   5.100   2.853
  256DIO     F614307   6.624   5.109   2.734
  256DIO    C2014308   6.221   5.224   3.000
  256DIO     O314309   6.151   5.184   3.119
  256DIO    C2114310   6.107   5.049   3.114
  256DIO    C2214311   6.019   5.024   2.993
  256DIO    C2314312   6.099   5.065   2.870
  256DIO     O414313   6.144   5.200   2.882
  256DIO    C2414314   5.886   5.103   2.998
  256DIO    C2514315   5.795   5.074   3.118
  256DIO    C2614316   5.757   4.927   3.132
  256DIO     H114317   7.477   5.131   2.912
  256DIO     H214318   7.436   4.768   3.162
  256DIO     H314319   7.259   4.965   3.263
  256DIO     H414320   7.008   4.995   3.261
  256DIO     H514321   7.008   5.011   2.824
  256DIO     H614322   6.399   5.160   3.210
  256DIO     H714323   6.387   5.205   2.774
  256DIO     H814324   6.231   5.333   3.007
  256DIO     H914325   6.194   4.982   3.113
  256DIO    H1014326   6.055   5.028   3.208
  256DIO    H1114327   5.996   4.917   2.986
  256DIO    H1214328   6.038   5.058   2.780
  256DIO    H1314329   6.185   4.999   2.856
  256DIO    H1414330   5.906   5.211   2.996
  256DIO    H1514331   5.829   5.081   2.906
  256DIO    H1614332   5.842   5.108   3.211
  256DIO    H1714333   5.703   5.133   3.107
  256DIO    H1814334   5.713   4.889   3.039
  256DIO    H1914335   5.843   4.865   3.157
  256DIO    H2014336   5.683   4.915   3.212
  257DIO     F114337   6.584   3.607   5.804
  257DIO     C114338   6.506   3.556   5.707
  257DIO     C214339   6.362   3.555   5.723
  257DIO     C314340   6.273   3.497   5.620
  257DIO     C414341   6.339   3.443   5.499
  257DIO     C514342   6.483   3.445   5.484
  257DIO     F214343   6.539   3.399   5.370
  257DIO     C614344   6.567   3.502   5.587
  257DIO     F314345   6.701   3.502   5.573
  257DIO     C714346   6.127   3.495   5.636
  257DIO     C814347   6.050   3.370   5.615
  257DIO     C914348   5.905   3.367   5.630
  257DIO    C1014349   5.833   3.490   5.656
  257DIO    C1114350   5.905   3.613   5.684
  257DIO    C1214351   6.049   3.615   5.672
  257DIO     F414352   6.114   3.731   5.693
  257DIO     O114353   5.700   3.476   5.693
  257DIO    C1314354   5.606   3.572   5.656
  257DIO     O214355   5.605   3.661   5.567
  257DIO    C1414356   5.477   3.552   5.722
  257DIO    C1514357   5.410   3.420   5.727
  257DIO     F514358   5.473   3.311   5.677
  257DIO    C1614359   5.280   3.400   5.787
  257DIO    C1714360   5.204   3.513   5.839
  257DIO    C1814361   5.273   3.641   5.851
  257DIO    C1914362   5.404   3.661   5.792
  257DIO     F614363   5.467   3.777   5.820
  257DIO    C2014364   5.063   3.496   5.891
  257DIO     O314365   4.993   3.385   5.833
  257DIO    C2114366   4.950   3.411   5.700
  257DIO    C2214367   4.861   3.535   5.695
  257DIO    C2314368   4.942   3.649   5.755
  257DIO     O414369   4.986   3.616   5.887
  257DIO    C2414370   4.728   3.517   5.772
  257DIO    C2514371   4.637   3.403   5.724
  257DIO    C2614372   4.599   3.413   5.577
  257DIO     H114373   6.320   3.597   5.814
  257DIO     H214374   6.278   3.409   5.415
  257DIO     H314375   6.101   3.277   5.593
  257DIO     H414376   5.850   3.275   5.623
  257DIO     H514377   5.851   3.703   5.709
  257DIO     H614378   5.242   3.299   5.794
  257DIO     H714379   5.230   3.722   5.908
  257DIO     H814380   5.073   3.471   5.997
  257DIO     H914381   5.036   3.423   5.634
  257DIO    H1014382   4.897   3.322   5.664
  257DIO    H1114383   4.838   3.559   5.590
  257DIO    H1214384   4.881   3.740   5.763
  257DIO    H1314385   5.028   3.674   5.692
  257DIO    H1414386   4.748   3.502   5.879
  257DIO    H1514387   4.672   3.611   5.765
  257DIO    H1614388   4.685   3.306   5.743
  257DIO    H1714389   4.546   3.405   5.784
  257DIO    H1814390   4.555   3.510   5.554
  257DIO    H1914391   4.686   3.398   5.512
  257DIO    H2014392   4.525   3.336   5.552
  258DIO     F114393   2.184   1.497   0.841
  258DIO     C114394   2.106   1.599   0.881
  258DIO     C214395   1.962   1.589   0.867
  258DIO     C314396   1.873   1.700   0.908
  258DIO     C414397   1.939   1.820   0.965
  258DIO     C514398   2.083   1.828   0.977
  258DIO     F214399   2.138   1.938   1.033
  258DIO     C614400   2.167   1.718   0.936
  258DIO     F314401   2.300   1.727   0.947
  258DIO     C714402   1.727   1.692   0.894
  258DIO     C814403   1.650   1.800   0.829
  258DIO     C914404   1.505   1.792   0.815
  258DIO    C1014405   1.432   1.682   0.876
  258DIO    C1114406   1.505   1.571   0.935
  258DIO    C1214407   1.649   1.577   0.945
  258DIO     F414408   1.714   1.475   1.005
  258DIO     O114409   1.300   1.668   0.839
  258DIO    C1314410   1.206   1.621   0.930
  258DIO     O214411   1.205   1.611   1.055
  258DIO    C1414412   1.076   1.592   0.866
  258DIO    C1514413   1.010   1.689   0.777
  258DIO     F514414   1.073   1.804   0.743
  258DIO    C1614415   0.879   1.665   0.718
  258DIO    C1714416   0.804   1.545   0.753
  258DIO    C1814417   0.872   1.440   0.827
  258DIO    C1914418   1.004   1.464   0.884
  258DIO     F614419   1.066   1.358   0.939
  258DIO    C2014420   0.663   1.524   0.702
  258DIO     O314421   0.593   1.646   0.673
  258DIO    C2114422   0.549   1.713   0.791
  258DIO    C2214423   0.461   1.623   0.876
  258DIO    C2314424   0.541   1.497   0.905
  258DIO     O414425   0.586   1.436   0.784
  258DIO    C2414426   0.328   1.586   0.806
  258DIO    C2514427   0.237   1.703   0.768
  258DIO    C2614428   0.199   1.792   0.885
  258DIO     H114429   1.919   1.498   0.827
  258DIO     H214430   1.878   1.901   1.005
  258DIO     H314431   1.701   1.884   0.784
  258DIO     H414432   1.450   1.867   0.760
  258DIO     H514433   1.450   1.486   0.975
  258DIO     H614434   0.841   1.736   0.646
  258DIO     H714435   0.829   1.341   0.837
  258DIO     H814436   0.673   1.473   0.605
  258DIO     H914437   0.636   1.747   0.849
  258DIO    H1014438   0.497   1.804   0.760
  258DIO    H1114439   0.438   1.673   0.971
  258DIO    H1214440   0.480   1.423   0.959
  258DIO    H1314441   0.627   1.519   0.969
  258DIO    H1414442   0.348   1.528   0.715
  258DIO    H1514443   0.271   1.519   0.873
  258DIO    H1614444   0.284   1.764   0.690
  258DIO    H1714445   0.145   1.663   0.723
  258DIO    H1814446   0.155   1.733   0.967
  258DIO    H1914447   0.285   1.846   0.925
  258DIO    H2014448   0.125   1.867   0.854
  259DIO     F114449   2.130   7.556   2.460
  259DIO     C114450   2.053   7.451   2.493
  259DIO     C214451   1.908   7.468   2.497
  259DIO     C314452   1.820   7.356   2.535
  259DIO     C414453   1.885   7.226   2.567
  259DIO     C514454   2.029   7.213   2.562
  259DIO     F214455   2.085   7.092   2.588
  259DIO     C614456   2.113   7.324   2.525
  259DIO     F314457   2.247   7.310   2.522
  259DIO     C714458   1.673   7.371   2.541
  259DIO     C814459   1.596   7.328   2.660
  259DIO     C914460   1.451   7.342   2.665
  259DIO    C1014461   1.379   7.390   2.549
  259DIO    C1114462   1.451   7.440   2.433
  259DIO    C1214463   1.595   7.428   2.429
  259DIO     F414464   1.660   7.469   2.319
  259DIO     O114465   1.247   7.423   2.569
  259DIO    C1314466   1.152   7.404   2.469
  259DIO     O214467   1.151   7.333   2.365
  259DIO    C1414468   1.023   7.466   2.500
  259DIO    C1514469   0.957   7.447   2.631
  259DIO     F514470   1.019   7.379   2.729
  259DIO    C1614471   0.826   7.502   2.661
  259DIO    C1714472   0.750   7.574   2.559
  259DIO    C1814473   0.819   7.608   2.435
  259DIO    C1914474   0.951   7.554   2.406
  259DIO     F614475   1.013   7.602   2.296
  259DIO    C2014476   0.609   7.622   2.585
  259DIO     O314477   0.540   7.545   2.684
  259DIO    C2114478   0.496   7.419   2.635
  259DIO    C2214479   0.407   7.436   2.512
  259DIO    C2314480   0.488   7.516   2.410
  259DIO     O414481   0.532   7.639   2.466
  259DIO    C2414482   0.274   7.508   2.543
  259DIO    C2514483   0.184   7.441   2.646
  259DIO    C2614484   0.145   7.298   2.611
  259DIO     H114485   1.866   7.564   2.471
  259DIO     H214486   1.825   7.139   2.586
  259DIO     H314487   1.648   7.290   2.747
  259DIO     H414488   1.396   7.319   2.755
  259DIO     H514489   1.397   7.480   2.349
  259DIO     H614490   0.788   7.492   2.762
  259DIO     H714491   0.776   7.679   2.366
  259DIO     H814492   0.619   7.722   2.628
  259DIO     H914493   0.583   7.356   2.611
  259DIO    H1014494   0.443   7.368   2.716
  259DIO    H1114495   0.385   7.337   2.470
  259DIO    H1214496   0.427   7.539   2.322
  259DIO    H1314497   0.574   7.458   2.374
  259DIO    H1414498   0.294   7.611   2.577
  259DIO    H1514499   0.218   7.518   2.449
  259DIO    H1614500   0.231   7.443   2.745
  259DIO    H1714501   0.092   7.501   2.656
  259DIO    H1814502   0.101   7.293   2.511
  259DIO    H1914503   0.232   7.231   2.614
  259DIO    H2014504   0.072   7.260   2.682
  260DIO     F114505   3.432   9.756   3.257
  260DIO     C114506   3.354   9.679   3.336
  260DIO     C214507   3.210   9.696   3.331
  260DIO     C314508   3.122   9.614   3.417
  260DIO     C414509   3.187   9.515   3.506
  260DIO     C514510   3.331   9.501   3.508
  260DIO     F214511   3.387   9.406   3.587
  260DIO     C614512   3.415   9.582   3.423
  260DIO     F314513   3.549   9.568   3.427
  260DIO     C714514   2.975   9.630   3.415
  260DIO     C814515   2.898   9.648   3.540
  260DIO     C914516   2.753   9.663   3.538
  260DIO    C1014517   2.681   9.651   3.413
  260DIO    C1114518   2.753   9.641   3.288
  260DIO    C1214519   2.897   9.628   3.290
  260DIO     F414520   2.962   9.614   3.172
  260DIO     O114521   2.549   9.690   3.415
  260DIO    C1314522   2.454   9.626   3.336
  260DIO     O214523   2.453   9.514   3.277
  260DIO    C1414524   2.325   9.695   3.334
  260DIO    C1514525   2.259   9.740   3.459
  260DIO     F514526   2.321   9.725   3.577
  260DIO    C1614527   2.128   9.803   3.460
  260DIO    C1714528   2.052   9.818   3.336
  260DIO    C1814529   2.121   9.791   3.210
  260DIO    C1914530   2.252   9.729   3.210
  260DIO     F614531   2.315   9.721   3.090
  260DIO    C2014532   1.911   9.873   3.337
  260DIO     O314533   1.842   9.851   3.460
  260DIO    C2114534   1.798   9.717   3.476
  260DIO    C2214535   1.709   9.674   3.359
  260DIO    C2314536   1.790   9.697   3.232
  260DIO     O414537   1.834   9.833   3.223
  260DIO    C2414538   1.576   9.753   3.353
  260DIO    C2514539   1.486   9.742   3.476
  260DIO    C2614540   1.447   9.599   3.511
  260DIO     H114541   3.168   9.769   3.263
  260DIO     H214542   3.126   9.446   3.564
  260DIO     H314543   2.950   9.656   3.635
  260DIO     H414544   2.698   9.685   3.629
  260DIO     H514545   2.699   9.637   3.194
  260DIO     H614546   2.090   9.841   3.554
  260DIO     H714547   2.078   9.821   3.116
  260DIO     H814548   1.921   9.982   3.328
  260DIO     H914549   1.885   9.651   3.484
  260DIO    H1014550   1.745   9.710   3.571
  260DIO    H1114551   1.687   9.568   3.368
  260DIO    H1214552   1.729   9.677   3.143
  260DIO    H1314553   1.876   9.630   3.227
  260DIO    H1414554   1.596   9.860   3.335
  260DIO    H1514555   1.520   9.718   3.265
  260DIO    H1614556   1.533   9.790   3.562
  260DIO    H1714557   1.394   9.799   3.456
  260DIO    H1814558   1.403   9.547   3.425
  260DIO    H1914559   1.534   9.542   3.545
  260DIO    H2014560   1.374   9.599   3.592
  261DIO     F114561   7.129   2.410   7.957
  261DIO     C114562   7.051   2.519   7.970
  261DIO     C214563   6.907   2.505   7.960
  261DIO     C314564   6.818   2.623   7.972
  261DIO     C414565   6.884   2.754   7.997
  261DIO     C514566   7.028   2.764   8.007
  261DIO     F214567   7.084   2.884   8.034
  261DIO     C614568   7.112   2.648   7.994
  261DIO     F314569   7.246   2.659   8.003
  261DIO     C714570   6.672   2.612   7.961
  261DIO     C814571   6.595   2.700   7.870
  261DIO     C914572   6.450   2.689   7.860
  261DIO    C1014573   6.378   2.598   7.945
  261DIO    C1114574   6.450   2.504   8.030
  261DIO    C1214575   6.594   2.513   8.039
  261DIO     F414576   6.659   2.429   8.122
  261DIO     O114577   6.245   2.576   7.913
  261DIO    C1314578   6.151   2.552   8.013
  261DIO     O214579   6.150   2.573   8.137
  261DIO    C1414580   6.022   2.508   7.958
  261DIO    C1514581   5.955   2.580   7.847
  261DIO     F514582   6.018   2.683   7.787
  261DIO    C1614583   5.825   2.543   7.797
  261DIO    C1714584   5.749   2.435   7.860
  261DIO    C1814585   5.818   2.352   7.958
  261DIO    C1914586   5.949   2.388   8.007
  261DIO     F614587   6.012   2.299   8.087
  261DIO    C2014588   5.608   2.402   7.816
  261DIO     O314589   5.538   2.513   7.758
  261DIO    C2114590   5.495   2.607   7.855
  261DIO    C2214591   5.406   2.541   7.960
  261DIO    C2314592   5.487   2.425   8.019
  261DIO     O414593   5.531   2.337   7.917
  261DIO    C2414594   5.273   2.487   7.901
  261DIO    C2514595   5.182   2.592   7.835
  261DIO    C2614596   5.144   2.707   7.927
  261DIO     H114597   6.865   2.407   7.943
  261DIO     H214598   6.823   2.842   8.017
  261DIO     H314599   6.646   2.771   7.807
  261DIO     H414600   6.395   2.748   7.787
  261DIO     H514601   6.396   2.432   8.090
  261DIO     H614602   5.787   2.594   7.709
  261DIO     H714603   5.775   2.258   7.991
  261DIO     H814604   5.618   2.329   7.735
  261DIO     H914605   5.581   2.654   7.903
  261DIO    H1014606   5.442   2.687   7.803
  261DIO    H1114607   5.383   2.612   8.039
  261DIO    H1214608   5.426   2.367   8.089
  261DIO    H1314609   5.573   2.463   8.076
  261DIO    H1414610   5.293   2.409   7.827
  261DIO    H1514611   5.217   2.439   7.982
  261DIO    H1614612   5.230   2.632   7.745
  261DIO    H1714613   5.091   2.542   7.802
  261DIO    H1814614   5.100   2.670   8.021
  261DIO    H1914615   5.231   2.769   7.952
  261DIO    H2014616   5.070   2.771   7.878
  262DIO     F114617   3.205   0.457   4.314
  262DIO     C114618   3.128   0.563   4.285
  262DIO     C214619   2.984   0.547   4.281
  262DIO     C314620   2.895   0.660   4.247
  262DIO     C414621   2.960   0.791   4.221
  262DIO     C514622   3.105   0.804   4.226
  262DIO     F214623   3.160   0.926   4.206
  262DIO     C614624   3.188   0.691   4.259
  262DIO     F314625   3.322   0.705   4.262
  262DIO     C714626   2.748   0.646   4.241
  262DIO     C814627   2.671   0.693   4.124
  262DIO     C914628   2.527   0.679   4.118
  262DIO    C1014629   2.454   0.627   4.232
  262DIO    C1114630   2.527   0.572   4.346
  262DIO    C1214631   2.671   0.584   4.350
  262DIO     F414632   2.736   0.538   4.459
  262DIO     O114633   2.322   0.594   4.211
  262DIO    C1314634   2.227   0.610   4.312
  262DIO     O214635   2.226   0.676   4.419
  262DIO    C1414636   2.098   0.549   4.278
  262DIO    C1514637   2.032   0.573   4.148
  262DIO     F514638   2.095   0.645   4.053
  262DIO    C1614639   1.901   0.519   4.116
  262DIO    C1714640   1.825   0.444   4.215
  262DIO    C1814641   1.894   0.404   4.337
  262DIO    C1914642   2.026   0.456   4.369
  262DIO     F614643   2.088   0.404   4.476
  262DIO    C2014644   1.685   0.397   4.186
  262DIO     O314645   1.615   0.477   4.091
  262DIO    C2114646   1.571   0.601   4.145
  262DIO    C2214647   1.482   0.579   4.267
  262DIO    C2314648   1.563   0.495   4.366
  262DIO     O414649   1.607   0.374   4.305
  262DIO    C2414650   1.350   0.508   4.233
  262DIO    C2514651   1.259   0.580   4.133
  262DIO    C2614652   1.220   0.721   4.174
  262DIO     H114653   2.941   0.450   4.302
  262DIO     H214654   2.900   0.879   4.206
  262DIO     H314655   2.723   0.735   4.038
  262DIO     H414656   2.472   0.706   4.029
  262DIO     H514657   2.472   0.529   4.428
  262DIO     H614658   1.863   0.534   4.015
  262DIO     H714659   1.851   0.330   4.403
  262DIO     H814660   1.694   0.298   4.139
  262DIO     H914661   1.658   0.663   4.171
  262DIO    H1014662   1.518   0.656   4.066
  262DIO    H1114663   1.460   0.676   4.314
  262DIO    H1214664   1.502   0.468   4.453
  262DIO    H1314665   1.649   0.551   4.404
  262DIO    H1414666   1.369   0.407   4.195
  262DIO    H1514667   1.293   0.494   4.326
  262DIO    H1614668   1.306   0.582   4.034
  262DIO    H1714669   1.167   0.521   4.121
  262DIO    H1814670   1.177   0.722   4.275
  262DIO    H1914671   1.307   0.788   4.174
  262DIO    H2014672   1.147   0.762   4.104
  263DIO     F114673   2.130   6.874   9.661
  263DIO     C114674   2.053   6.813   9.753
  263DIO     C214675   1.908   6.828   9.746
  263DIO     C314676   1.820   6.765   9.846
  263DIO     C414677   1.885   6.684   9.951
  263DIO     C514678   2.029   6.671   9.957
  263DIO     F214679   2.085   6.593  10.052
  263DIO     C614680   2.113   6.734   9.858
  263DIO     F314681   2.247   6.721   9.864
  263DIO     C714682   1.673   6.780   9.841
  263DIO     C814683   1.596   6.822   9.960
  263DIO     C914684   1.451   6.836   9.955
  263DIO    C1014685   1.379   6.800   9.835
  263DIO    C1114686   1.451   6.766   9.714
  263DIO    C1214687   1.595   6.754   9.718
  263DIO     F414688   1.660   6.717   9.606
  263DIO     O114689   1.247   6.839   9.829
  263DIO    C1314690   1.152   6.761   9.764
  263DIO     O214691   1.151   6.640   9.727
  263DIO    C1414692   1.023   6.829   9.749
  263DIO    C1514693   0.957   6.896   9.863
  263DIO     F514694   1.019   6.904   9.982
  263DIO    C1614695   0.826   6.958   9.852
  263DIO    C1714696   0.750   6.949   9.727
  263DIO    C1814697   0.819   6.899   9.609
  263DIO    C1914698   0.951   6.838   9.620
  263DIO     F614699   1.013   6.807   9.504
  263DIO    C2014700   0.609   7.003   9.717
  263DIO     O314701   0.540   7.006   9.843
  263DIO    C2114702   0.496   6.877   9.884
  263DIO    C2214703   0.407   6.813   9.777
  263DIO    C2314704   0.488   6.811   9.648
  263DIO     O414705   0.532   6.942   9.614
  263DIO    C2414706   0.274   6.889   9.756
  263DIO    C2514707   0.184   6.901   9.879
  263DIO    C2614708   0.145   6.768   9.940
  263DIO     H114709   1.866   6.887   9.665
  263DIO     H214710   1.825   6.628  10.021
  263DIO     H314711   1.648   6.847  10.052
  263DIO     H414712   1.396   6.875  10.040
  263DIO     H514713   1.397   6.745   9.623
  263DIO     H614714   0.788   7.013   9.937
  263DIO     H714715   0.776   6.910   9.510
  263DIO     H814716   0.619   7.109   9.688
  263DIO     H914717   0.583   6.813   9.904
  263DIO    H1014718   0.443   6.888   9.979
  263DIO    H1114719   0.385   6.710   9.806
  263DIO    H1214720   0.427   6.774   9.565
  263DIO    H1314721   0.574   6.744   9.656
  263DIO    H1414722   0.294   6.990   9.718
  263DIO    H1514723   0.218   6.838   9.677
  263DIO    H1614724   0.231   6.964   9.955
  263DIO    H1714725   0.092   6.953   9.848
  263DIO    H1814726   0.101   6.701   9.866
  263DIO    H1914727   0.232   6.718   9.985
  263DIO    H2014728   0.072   6.783  10.020
  264DIO     F114729   7.439   2.978   0.282
  264DIO     C114730   7.362   3.063   0.351
  264DIO     C214731   7.218   3.058   0.335
  264DIO     C314732   7.129   3.151   0.408
  264DIO     C414733   7.194   3.249   0.498
  264DIO     C514734   7.339   3.253   0.512
  264DIO     F214735   7.394   3.340   0.599
  264DIO     C614736   7.422   3.160   0.440
  264DIO     F314737   7.556   3.165   0.453
  264DIO     C714738   6.982   3.148   0.392
  264DIO     C814739   6.905   3.270   0.362
  264DIO     C914740   6.761   3.267   0.347
  264DIO    C1014741   6.688   3.144   0.372
  264DIO    C1114742   6.760   3.020   0.394
  264DIO    C1214743   6.905   3.023   0.406
  264DIO     F414744   6.969   2.908   0.432
  264DIO     O114745   6.556   3.142   0.333
  264DIO    C1314746   6.461   3.069   0.405
  264DIO     O214747   6.460   3.021   0.521
  264DIO    C1414748   6.332   3.061   0.335
  264DIO    C1514749   6.266   3.180   0.279
  264DIO     F514750   6.328   3.300   0.282
  264DIO    C1614751   6.135   3.175   0.217
  264DIO    C1714752   6.059   3.051   0.213
  264DIO    C1814753   6.128   2.928   0.252
  264DIO    C1914754   6.260   2.933   0.314
  264DIO     F614755   6.322   2.815   0.334
  264DIO    C2014756   5.919   3.046   0.158
  264DIO     O314757   5.849   3.171   0.168
  264DIO    C2114758   5.805   3.199   0.300
  264DIO    C2214759   5.716   3.088   0.354
  264DIO    C2314760   5.797   2.958   0.343
  264DIO     O414761   5.841   2.937   0.210
  264DIO    C2414762   5.583   3.073   0.276
  264DIO    C2514763   5.493   3.197   0.276
  264DIO    C2614764   5.454   3.246   0.414
  264DIO     H114765   7.175   2.983   0.269
  264DIO     H214766   7.134   3.313   0.561
  264DIO     H314767   6.957   3.364   0.346
  264DIO     H414768   6.705   3.355   0.317
  264DIO     H514769   6.706   2.927   0.407
  264DIO     H614770   6.097   3.265   0.169
  264DIO     H714771   6.085   2.831   0.231
  264DIO     H814772   5.928   3.027   0.051
  264DIO     H914773   5.892   3.214   0.366
  264DIO    H1014774   5.752   3.295   0.298
  264DIO    H1114775   5.694   3.106   0.459
  264DIO    H1214776   5.736   2.872   0.372
  264DIO    H1314777   5.883   2.960   0.411
  264DIO    H1414778   5.603   3.046   0.172
  264DIO    H1514779   5.527   2.990   0.320
  264DIO    H1614780   5.540   3.278   0.220
  264DIO    H1714781   5.401   3.172   0.221
  264DIO    H1814782   5.410   3.165   0.474
  264DIO    H1914783   5.541   3.286   0.468
  264DIO    H2014784   5.381   3.326   0.406
  265DIO     F114785   2.461   4.794   5.788
  265DIO     C114786   2.383   4.832   5.685
  265DIO     C214787   2.239   4.819   5.696
  265DIO     C314788   2.150   4.857   5.584
  265DIO     C414789   2.216   4.912   5.462
  265DIO     C514790   2.360   4.924   5.454
  265DIO     F214791   2.416   4.977   5.344
  265DIO     C614792   2.444   4.885   5.565
  265DIO     F314793   2.578   4.895   5.556
  265DIO     C714794   2.004   4.844   5.592
  265DIO     C814795   1.927   4.776   5.486
  265DIO     C914796   1.782   4.763   5.494
  265DIO    C1014797   1.710   4.826   5.603
  265DIO    C1114798   1.782   4.887   5.713
  265DIO    C1214799   1.926   4.897   5.706
  265DIO     F414800   1.991   4.959   5.807
  265DIO     O114801   1.577   4.789   5.617
  265DIO    C1314802   1.483   4.881   5.663
  265DIO     O214803   1.482   5.006   5.670
  265DIO    C1414804   1.354   4.818   5.693
  265DIO    C1514805   1.288   4.726   5.598
  265DIO     F514806   1.350   4.690   5.484
  265DIO    C1614807   1.157   4.668   5.623
  265DIO    C1714808   1.081   4.705   5.742
  265DIO    C1814809   1.150   4.782   5.845
  265DIO    C1914810   1.281   4.838   5.820
  265DIO     F614811   1.344   4.896   5.926
  265DIO    C2014812   0.940   4.655   5.764
  265DIO     O314813   0.871   4.624   5.642
  265DIO    C2114814   0.827   4.740   5.573
  265DIO    C2214815   0.738   4.827   5.661
  265DIO    C2314816   0.819   4.858   5.787
  265DIO     O414817   0.863   4.739   5.850
  265DIO    C2414818   0.605   4.758   5.700
  265DIO    C2514819   0.515   4.717   5.583
  265DIO    C2614820   0.476   4.833   5.492
  265DIO     H114821   2.197   4.780   5.788
  265DIO     H214822   2.155   4.950   5.381
  265DIO     H314823   1.978   4.730   5.402
  265DIO     H414824   1.727   4.706   5.420
  265DIO     H514825   1.728   4.929   5.796
  265DIO     H614826   1.119   4.595   5.553
  265DIO     H714827   1.107   4.793   5.944
  265DIO     H814828   0.950   4.559   5.817
  265DIO     H914829   0.914   4.797   5.538
  265DIO    H1014830   0.774   4.707   5.483
  265DIO    H1114831   0.715   4.921   5.610
  265DIO    H1214832   0.758   4.914   5.859
  265DIO    H1314833   0.905   4.922   5.763
  265DIO    H1414834   0.625   4.668   5.760
  265DIO    H1514835   0.549   4.826   5.765
  265DIO    H1614836   0.562   4.638   5.524
  265DIO    H1714837   0.423   4.674   5.625
  265DIO    H1814838   0.432   4.915   5.549
  265DIO    H1914839   0.563   4.871   5.437
  265DIO    H2014840   0.402   4.800   5.418
  266DIO     F114841   3.492   0.372   8.989
  266DIO     C114842   3.415   0.280   8.928
  266DIO     C214843   3.270   0.288   8.944
  266DIO     C314844   3.182   0.188   8.880
  266DIO     C414845   3.247   0.082   8.800
  266DIO     C514846   3.391   0.077   8.786
  266DIO     F214847   3.447  -0.018   8.708
  266DIO     C614848   3.475   0.176   8.849
  266DIO     F314849   3.609   0.169   8.837
  266DIO     C714850   3.035   0.193   8.896
  266DIO     C814851   2.958   0.074   8.937
  266DIO     C914852   2.813   0.078   8.951
  266DIO    C1014853   2.741   0.199   8.915
  266DIO    C1114854   2.813   0.320   8.882
  266DIO    C1214855   2.957   0.316   8.870
  266DIO     F414856   3.022   0.428   8.833
  266DIO     O114857   2.609   0.204   8.954
  266DIO    C1314858   2.514   0.270   8.876
  266DIO     O214859   2.513   0.306   8.755
  266DIO    C1414860   2.385   0.285   8.944
  266DIO    C1514861   2.319   0.171   9.011
  266DIO     F514862   2.381   0.052   9.020
  266DIO    C1614863   2.188   0.182   9.073
  266DIO    C1714864   2.112   0.306   9.065
  266DIO    C1814865   2.181   0.424   9.014
  266DIO    C1914866   2.313   0.413   8.954
  266DIO     F614867   2.375   0.529   8.922
  266DIO    C2014868   1.971   0.316   9.119
  266DIO     O314869   1.902   0.191   9.121
  266DIO    C2114870   1.858   0.150   8.992
  266DIO    C2214871   1.769   0.256   8.928
  266DIO    C2314872   1.850   0.386   8.926
  266DIO     O414873   1.894   0.420   9.058
  266DIO    C2414874   1.636   0.278   9.004
  266DIO    C2514875   1.546   0.155   9.016
  266DIO    C2614876   1.507   0.093   8.883
  266DIO     H114877   3.228   0.368   9.003
  266DIO     H214878   3.187   0.012   8.743
  266DIO     H314879   3.010  -0.018   8.962
  266DIO     H414880   2.758  -0.006   8.990
  266DIO     H514881   2.759   0.411   8.860
  266DIO     H614882   2.150   0.097   9.128
  266DIO     H714883   2.138   0.523   9.026
  266DIO     H814884   1.981   0.345   9.224
  266DIO     H914885   1.945   0.129   8.928
  266DIO    H1014886   1.805   0.055   9.003
  266DIO    H1114887   1.747   0.227   8.825
  266DIO    H1214888   1.789   0.469   8.889
  266DIO    H1314889   1.936   0.377   8.859
  266DIO    H1414890   1.656   0.315   9.105
  266DIO    H1514891   1.580   0.357   8.953
  266DIO    H1614892   1.593   0.079   9.080
  266DIO    H1714893   1.454   0.185   9.069
  266DIO    H1814894   1.463   0.168   8.816
  266DIO    H1914895   1.594   0.048   8.833
  266DIO    H2014896   1.434   0.014   8.898
  267DIO     F114897   2.130   9.836   2.861
  267DIO     C114898   2.053   9.725   2.860
  267DIO     C214899   1.908   9.740   2.869
  267DIO     C314900   1.820   9.622   2.871
  267DIO     C414901   1.885   9.489   2.862
  267DIO     C514902   2.029   9.477   2.853
  267DIO     F214903   2.085   9.355   2.841
  267DIO     C614904   2.113   9.595   2.852
  267DIO     F314905   2.247   9.582   2.845
  267DIO     C714906   1.673   9.634   2.881
  267DIO     C814907   1.596   9.558   2.982
  267DIO     C914908   1.451   9.570   2.991
  267DIO    C1014909   1.379   9.650   2.895
  267DIO    C1114910   1.451   9.733   2.800
  267DIO    C1214911   1.595   9.723   2.792
  267DIO     F414912   1.660   9.796   2.700
  267DIO     O114913   1.247   9.676   2.924
  267DIO    C1314914   1.152   9.688   2.822
  267DIO     O214915   1.151   9.652   2.702
  267DIO    C1414916   1.023   9.738   2.871
  267DIO    C1514917   0.957   9.680   2.990
  267DIO     F514918   1.019   9.585   3.063
  267DIO    C1614919   0.826   9.723   3.036
  267DIO    C1714920   0.750   9.822   2.960
  267DIO    C1814921   0.819   9.893   2.853
  267DIO    C1914922   0.951   9.851   2.808
  267DIO     F614923   1.013   9.930   2.719
  267DIO    C2014924   0.609   9.860   3.000
  267DIO     O314925   0.540   9.757   3.071
  267DIO    C2114926   0.496   9.652   2.985
  267DIO    C2214927   0.407   9.705   2.874
  267DIO    C2314928   0.488   9.813   2.801
  267DIO     O414929   0.532   9.913   2.892
  267DIO    C2414930   0.274   9.765   2.925
  267DIO    C2514931   0.184   9.669   3.003
  267DIO    C2614932   0.145   9.544   2.926
  267DIO     H114933   1.866   9.840   2.874
  267DIO     H214934   1.825   9.399   2.853
  267DIO     H314935   1.648   9.495   3.053
  267DIO     H414936   1.396   9.520   3.070
  267DIO     H514937   1.397   9.797   2.732
  267DIO     H614938   0.788   9.682   3.129
  267DIO     H714939   0.776   9.982   2.808
  267DIO     H814940   0.619   9.942   3.072
  267DIO     H914941   0.583   9.599   2.944
  267DIO    H1014942   0.443   9.578   3.047
  267DIO    H1114943   0.385   9.624   2.803
  267DIO    H1214944   0.427   9.861   2.724
  267DIO    H1314945   0.574   9.768   2.749
  267DIO    H1414946   0.294   9.852   2.989
  267DIO    H1514947   0.218   9.803   2.839
  267DIO    H1614948   0.231   9.641   3.098
  267DIO    H1714949   0.092   9.723   3.030
  267DIO    H1814950   0.101   9.569   2.829
  267DIO    H1914951   0.232   9.479   2.909
  267DIO    H2014952   0.072   9.486   2.982
  268DIO     F114953   7.538   9.826   6.028
  268DIO     C114954   7.461   9.814   5.919
  268DIO     C214955   7.316   9.807   5.934
  268DIO     C314956   7.228   9.792   5.817
  268DIO     C414957   7.293   9.786   5.684
  268DIO     C514958   7.437   9.794   5.671
  268DIO     F214959   7.493   9.793   5.548
  268DIO     C614960   7.521   9.808   5.788
  268DIO     F314961   7.655   9.813   5.775
  268DIO     C714962   7.081   9.783   5.830
  268DIO     C814963   7.004   9.675   5.765
  268DIO     C914964   6.859   9.667   5.778
  268DIO    C1014965   6.787   9.772   5.848
  268DIO    C1114966   6.859   9.875   5.919
  268DIO    C1214967   7.003   9.882   5.908
  268DIO     F414968   7.068   9.982   5.971
  268DIO     O114969   6.655   9.745   5.876
  268DIO    C1314970   6.560   9.848   5.877
  268DIO     O214971   6.559   9.964   5.828
  268DIO    C1414972   6.431   9.805   5.932
  268DIO    C1514973   6.365   9.680   5.887
  268DIO     F514974   6.427   9.598   5.801
  268DIO    C1614975   6.234   9.640   5.935
  268DIO    C1714976   6.158   9.726   6.026
  268DIO    C1814977   6.227   9.840   6.084
  268DIO    C1914978   6.359   9.880   6.037
  268DIO     F614979   6.421   9.978   6.106
  268DIO    C2014980   6.017   9.690   6.068
  268DIO     O314981   5.948   9.609   5.973
  268DIO    C2114982   5.904   9.682   5.859
  268DIO    C2214983   5.815   9.799   5.900
  268DIO    C2314984   5.896   9.883   5.998
  268DIO     O414985   5.940   9.804   6.108
  268DIO    C2414986   5.682   9.754   5.965
  268DIO    C2514987   5.592   9.666   5.878
  268DIO    C2614988   5.553   9.729   5.745
  268DIO     H114989   7.274   9.813   6.034
  268DIO     H214990   7.233   9.785   5.594
  268DIO     H314991   7.056   9.597   5.711
  268DIO     H414992   6.804   9.583   5.737
  268DIO     H514993   6.805   9.950   5.975
  268DIO     H614994   6.196   9.543   5.905
  268DIO     H714995   6.184   9.894   6.168
  268DIO     H814996   6.027   9.628   6.158
  268DIO     H914997   5.991   9.717   5.802
  268DIO    H1014998   5.851   9.612   5.793
  268DIO    H1114999   5.793   9.860   5.812
  268DIO    H1215000   5.835   9.964   6.039
  268DIO    H1315001   5.982   9.929   5.949
  268DIO    H1415002   5.702   9.700   6.059
  268DIO    H1515003   5.626   9.844   5.993
  268DIO    H1615004   5.639   9.569   5.860
  268DIO    H1715005   5.500   9.645   5.935
  268DIO    H1815006   5.509   9.828   5.760
  268DIO    H1915007   5.640   9.739   5.679
  268DIO    H2015008   5.480   9.667   5.694
  269DIO     F115009   2.154   3.079   2.162
  269DIO     C115010   2.076   3.012   2.249
  269DIO     C215011   1.932   3.027   2.242
  269DIO     C315012   1.843   2.957   2.338
  269DIO     C415013   1.909   2.869   2.437
  269DIO     C515014   2.053   2.855   2.442
  269DIO     F215015   2.108   2.771   2.531
  269DIO     C615016   2.137   2.926   2.348
  269DIO     F315017   2.270   2.913   2.353
  269DIO     C715018   1.697   2.973   2.334
  269DIO     C815019   1.620   3.006   2.456
  269DIO     C915020   1.475   3.021   2.452
  269DIO    C1015021   1.402   2.993   2.329
  269DIO    C1115022   1.475   2.968   2.206
  269DIO    C1215023   1.619   2.956   2.209
  269DIO     F415024   1.684   2.927   2.095
  269DIO     O115025   1.270   3.032   2.327
  269DIO    C1315026   1.176   2.959   2.255
  269DIO     O215027   1.175   2.841   2.211
  269DIO    C1415028   1.047   3.028   2.245
  269DIO    C1515029   0.980   3.087   2.364
  269DIO     F515030   1.043   3.087   2.483
  269DIO    C1615031   0.849   3.149   2.357
  269DIO    C1715032   0.774   3.150   2.233
  269DIO    C1815033   0.842   3.107   2.111
  269DIO    C1915034   0.974   3.046   2.118
  269DIO     F615035   1.037   3.023   2.000
  269DIO    C2015036   0.633   3.204   2.227
  269DIO     O315037   0.563   3.198   2.352
  269DIO    C2115038   0.520   3.066   2.383
  269DIO    C2215039   0.431   3.010   2.273
  269DIO    C2315040   0.511   3.017   2.143
  269DIO     O415041   0.556   3.150   2.119
  269DIO    C2415042   0.298   3.087   2.257
  269DIO    C2515043   0.207   3.091   2.380
  269DIO    C2615044   0.169   2.953   2.432
  269DIO     H115045   1.889   3.092   2.166
  269DIO     H215046   1.848   2.808   2.503
  269DIO     H315047   1.671   3.025   2.549
  269DIO     H415048   1.420   3.053   2.539
  269DIO     H515049   1.420   2.953   2.114
  269DIO     H615050   0.811   3.198   2.446
  269DIO     H715051   0.800   3.126   2.013
  269DIO     H815052   0.643   3.311   2.205
  269DIO     H915053   0.606   3.001   2.400
  269DIO    H1015054   0.467   3.070   2.479
  269DIO    H1115055   0.408   2.905   2.294
  269DIO    H1215056   0.450   2.986   2.058
  269DIO    H1315057   0.598   2.949   2.147
  269DIO    H1415058   0.318   3.191   2.226
  269DIO    H1515059   0.241   3.042   2.174
  269DIO    H1615060   0.255   3.149   2.460
  269DIO    H1715061   0.115   3.145   2.354
  269DIO    H1815062   0.125   2.892   2.353
  269DIO    H1915063   0.255   2.900   2.474
  269DIO    H2015064   0.095   2.963   2.513
  270DIO     F115065   3.478   1.191   9.130
  270DIO     C115066   3.401   1.130   9.222
  270DIO     C215067   3.257   1.145   9.215
  270DIO     C315068   3.168   1.082   9.315
  270DIO     C415069   3.233   1.002   9.421
  270DIO     C515070   3.378   0.988   9.426
  270DIO     F215071   3.433   0.911   9.521
  270DIO     C615072   3.461   1.052   9.327
  270DIO     F315073   3.595   1.039   9.334
  270DIO     C715074   3.022   1.098   9.310
  270DIO     C815075   2.944   1.139   9.429
  270DIO     C915076   2.800   1.154   9.424
  270DIO    C1015077   2.727   1.117   9.304
  270DIO    C1115078   2.800   1.083   9.183
  270DIO    C1215079   2.944   1.071   9.187
  270DIO     F415080   3.009   1.034   9.075
  270DIO     O115081   2.595   1.156   9.298
  270DIO    C1315082   2.500   1.078   9.233
  270DIO     O215083   2.500   0.957   9.197
  270DIO    C1415084   2.371   1.146   9.218
  270DIO    C1515085   2.305   1.213   9.331
  270DIO     F515086   2.368   1.222   9.451
  270DIO    C1615087   2.174   1.275   9.320
  270DIO    C1715088   2.098   1.267   9.196
  270DIO    C1815089   2.167   1.216   9.078
  270DIO    C1915090   2.299   1.155   9.089
  270DIO     F615091   2.361   1.123   8.973
  270DIO    C2015092   1.958   1.320   9.186
  270DIO     O315093   1.888   1.323   9.311
  270DIO    C2115094   1.844   1.194   9.352
  270DIO    C2215095   1.755   1.130   9.246
  270DIO    C2315096   1.836   1.128   9.117
  270DIO     O415097   1.880   1.259   9.082
  270DIO    C2415098   1.623   1.206   9.225
  270DIO    C2515099   1.532   1.219   9.347
  270DIO    C2615100   1.494   1.085   9.410
  270DIO     H115101   3.214   1.204   9.134
  270DIO     H215102   3.173   0.946   9.491
  270DIO     H315103   2.996   1.165   9.521
  270DIO     H415104   2.745   1.192   9.509
  270DIO     H515105   2.745   1.062   9.092
  270DIO     H615106   2.136   1.331   9.405
  270DIO     H715107   2.124   1.227   8.979
  270DIO     H815108   1.967   1.426   9.156
  270DIO     H915109   1.931   1.131   9.374
  270DIO    H1015110   1.792   1.206   9.448
  270DIO    H1115111   1.733   1.027   9.275
  270DIO    H1215112   1.775   1.091   9.034
  270DIO    H1315113   1.922   1.061   9.125
  270DIO    H1415114   1.643   1.307   9.187
  270DIO    H1515115   1.566   1.155   9.146
  270DIO    H1615116   1.579   1.282   9.423
  270DIO    H1715117   1.440   1.271   9.317
  270DIO    H1815118   1.450   1.018   9.335
  270DIO    H1915119   1.580   1.036   9.455
  270DIO    H2015120   1.420   1.101   9.489
  271DIO     F115121   3.735   2.962   1.776
  271DIO     C115122   3.658   3.034   1.692
  271DIO     C215123   3.513   3.018   1.698
  271DIO     C315124   3.425   3.092   1.606
  271DIO     C415125   3.490   3.185   1.511
  271DIO     C515126   3.634   3.200   1.507
  271DIO     F215127   3.690   3.288   1.422
  271DIO     C615128   3.718   3.125   1.598
  271DIO     F315129   3.852   3.138   1.593
  271DIO     C715130   3.278   3.077   1.609
  271DIO     C815131   3.201   3.050   1.486
  271DIO     C915132   3.056   3.035   1.489
  271DIO    C1015133   2.984   3.056   1.613
  271DIO    C1115134   3.056   3.075   1.737
  271DIO    C1215135   3.200   3.088   1.734
  271DIO     F415136   3.265   3.111   1.850
  271DIO     O115137   2.852   3.017   1.613
  271DIO    C1315138   2.757   3.087   1.688
  271DIO     O215139   2.756   3.202   1.739
  271DIO    C1415140   2.628   3.018   1.695
  271DIO    C1515141   2.562   2.965   1.573
  271DIO     F515142   2.624   2.970   1.454
  271DIO    C1615143   2.431   2.902   1.577
  271DIO    C1715144   2.355   2.895   1.701
  271DIO    C1815145   2.424   2.931   1.825
  271DIO    C1915146   2.556   2.993   1.821
  271DIO     F615147   2.618   3.010   1.940
  271DIO    C2015148   2.214   2.840   1.705
  271DIO     O315149   2.145   2.853   1.580
  271DIO    C2115150   2.101   2.986   1.555
  271DIO    C2215151   2.012   3.037   1.668
  271DIO    C2315152   2.093   3.023   1.797
  271DIO     O415153   2.137   2.889   1.815
  271DIO    C2415154   1.879   2.959   1.680
  271DIO    C2515155   1.789   2.961   1.557
  271DIO    C2615156   1.750   3.101   1.512
  271DIO     H115157   3.471   2.950   1.770
  271DIO     H215158   3.430   3.250   1.448
  271DIO     H315159   3.253   3.036   1.392
  271DIO     H415160   3.001   3.007   1.400
  271DIO     H515161   3.002   3.086   1.830
  271DIO     H615162   2.393   2.857   1.486
  271DIO     H715163   2.381   2.908   1.921
  271DIO     H815164   2.224   2.732   1.721
  271DIO     H915165   2.188   3.052   1.542
  271DIO    H1015166   2.048   2.987   1.459
  271DIO    H1115167   1.990   3.143   1.652
  271DIO    H1215168   2.032   3.050   1.884
  271DIO    H1315169   2.179   3.091   1.797
  271DIO    H1415170   1.899   2.854   1.705
  271DIO    H1515171   1.823   3.000   1.765
  271DIO    H1615172   1.836   2.908   1.474
  271DIO    H1715173   1.697   2.906   1.581
  271DIO    H1815174   1.706   3.159   1.594
  271DIO    H1915175   1.837   3.156   1.473
  271DIO    H2015176   1.677   3.096   1.431
  272DIO     F115177   9.760   0.784   9.528
  272DIO     C115178   9.682   0.845   9.436
  272DIO     C215179   9.538   0.830   9.444
  272DIO     C315180   9.449   0.893   9.344
  272DIO     C415181   9.515   0.973   9.238
  272DIO     C515182   9.659   0.987   9.233
  272DIO     F215183   9.714   1.065   9.137
  272DIO     C615184   9.743   0.924   9.332
  272DIO     F315185   9.876   0.936   9.325
  272DIO     C715186   9.303   0.878   9.349
  272DIO     C815187   9.226   0.836   9.230
  272DIO     C915188   9.081   0.822   9.235
  272DIO    C1015189   9.008   0.858   9.355
  272DIO    C1115190   9.081   0.892   9.476
  272DIO    C1215191   9.225   0.904   9.472
  272DIO     F415192   9.290   0.941   9.584
  272DIO     O115193   8.876   0.819   9.360
  272DIO    C1315194   8.782   0.897   9.426
  272DIO     O215195   8.781   1.018   9.462
  272DIO    C1415196   8.652   0.829   9.441
  272DIO    C1515197   8.586   0.762   9.327
  272DIO     F515198   8.649   0.753   9.208
  272DIO    C1615199   8.455   0.700   9.338
  272DIO    C1715200   8.380   0.709   9.463
  272DIO    C1815201   8.448   0.760   9.581
  272DIO    C1915202   8.580   0.820   9.570
  272DIO     F615203   8.642   0.852   9.685
  272DIO    C2015204   8.239   0.655   9.473
  272DIO     O315205   8.169   0.652   9.347
  272DIO    C2115206   8.125   0.781   9.306
  272DIO    C2215207   8.037   0.845   9.412
  272DIO    C2315208   8.117   0.847   9.542
  272DIO     O415209   8.162   0.716   9.576
  272DIO    C2415210   7.904   0.769   9.434
  272DIO    C2515211   7.813   0.757   9.311
  272DIO    C2615212   7.775   0.890   9.249
  272DIO     H115213   9.495   0.771   9.524
  272DIO     H215214   9.454   1.030   9.168
  272DIO     H315215   9.277   0.810   9.138
  272DIO     H415216   9.026   0.783   9.150
  272DIO     H515217   9.026   0.914   9.567
  272DIO     H615218   8.417   0.645   9.253
  272DIO     H715219   8.405   0.748   9.679
  272DIO     H815220   8.249   0.550   9.502
  272DIO     H915221   8.212   0.845   9.285
  272DIO    H1015222   8.073   0.770   9.211
  272DIO    H1115223   8.014   0.948   9.383
  272DIO    H1215224   8.056   0.884   9.625
  272DIO    H1315225   8.203   0.915   9.533
  272DIO    H1415226   7.924   0.668   9.472
  272DIO    H1515227   7.847   0.821   9.513
  272DIO    H1615228   7.860   0.693   9.235
  272DIO    H1715229   7.721   0.705   9.341
  272DIO    H1815230   7.731   0.957   9.323
  272DIO    H1915231   7.861   0.940   9.204
  272DIO    H2015232   7.701   0.874   9.170
  273DIO     F115233   3.147   7.874   2.162
  273DIO     C115234   3.069   7.932   2.068
  273DIO     C215235   2.925   7.917   2.076
  273DIO     C315236   2.836   7.977   1.974
  273DIO     C415237   2.902   8.054   1.866
  273DIO     C515238   3.046   8.068   1.861
  273DIO     F215239   3.101   8.143   1.763
  273DIO     C615240   3.130   8.007   1.961
  273DIO     F315241   3.263   8.020   1.954
  273DIO     C715242   2.690   7.962   1.980
  273DIO     C815243   2.613   7.917   1.862
  273DIO     C915244   2.468   7.902   1.867
  273DIO    C1015245   2.395   7.942   1.986
  273DIO    C1115246   2.468   7.980   2.106
  273DIO    C1215247   2.612   7.992   2.102
  273DIO     F415248   2.677   8.032   2.213
  273DIO     O115249   2.263   7.904   1.993
  273DIO    C1315250   2.169   7.984   2.056
  273DIO     O215251   2.168   8.106   2.089
  273DIO    C1415252   2.039   7.916   2.073
  273DIO    C1515253   1.973   7.846   1.962
  273DIO     F515254   2.036   7.833   1.843
  273DIO    C1615255   1.842   7.784   1.975
  273DIO    C1715256   1.767   7.796   2.099
  273DIO    C1815257   1.835   7.851   2.215
  273DIO    C1915258   1.967   7.911   2.202
  273DIO     F615259   2.029   7.946   2.317
  273DIO    C2015260   1.626   7.743   2.110
  273DIO     O315261   1.556   7.736   1.985
  273DIO    C2115262   1.512   7.864   1.940
  273DIO    C2215263   1.424   7.931   2.044
  273DIO    C2315264   1.504   7.937   2.174
  273DIO     O415265   1.549   7.807   2.212
  273DIO    C2415266   1.291   7.856   2.068
  273DIO    C2515267   1.200   7.840   1.946
  273DIO    C2615268   1.162   7.971   1.880
  273DIO     H115269   2.882   7.861   2.159
  273DIO     H215270   2.841   8.109   1.794
  273DIO     H315271   2.664   7.889   1.771
  273DIO     H415272   2.413   7.861   1.784
  273DIO     H515273   2.413   8.004   2.197
  273DIO     H615274   1.804   7.726   1.891
  273DIO     H715275   1.792   7.842   2.314
  273DIO     H815276   1.636   7.639   2.143
  273DIO     H915277   1.599   7.927   1.917
  273DIO    H1015278   1.460   7.850   1.845
  273DIO    H1115279   1.401   8.034   2.012
  273DIO    H1215280   1.443   7.977   2.256
  273DIO    H1315281   1.590   8.004   2.163
  273DIO    H1415282   1.311   7.756   2.109
  273DIO    H1515283   1.234   7.910   2.145
  273DIO    H1615284   1.247   7.774   1.872
  273DIO    H1715285   1.108   7.789   1.978
  273DIO    H1815286   1.118   8.041   1.952
  273DIO    H1915287   1.248   8.020   1.833
  273DIO    H2015288   1.088   7.953   1.801
  274DIO     F115289   4.811   2.034   4.915
  274DIO     C115290   4.733   2.141   4.889
  274DIO     C215291   4.589   2.125   4.884
  274DIO     C315292   4.500   2.239   4.854
  274DIO     C415293   4.566   2.371   4.833
  274DIO     C515294   4.710   2.384   4.838
  274DIO     F215295   4.766   2.506   4.822
  274DIO     C615296   4.794   2.270   4.867
  274DIO     F315297   4.928   2.284   4.871
  274DIO     C715298   4.354   2.225   4.848
  274DIO     C815299   4.277   2.276   4.732
  274DIO     C915300   4.132   2.262   4.726
  274DIO    C1015301   4.060   2.206   4.839
  274DIO    C1115302   4.132   2.148   4.950
  274DIO    C1215303   4.276   2.160   4.955
  274DIO     F415304   4.341   2.110   5.062
  274DIO     O115305   3.927   2.174   4.816
  274DIO    C1315306   3.833   2.187   4.918
  274DIO     O215307   3.832   2.250   5.026
  274DIO    C1415308   3.704   2.127   4.882
  274DIO    C1515309   3.638   2.155   4.753
  274DIO     F515310   3.700   2.231   4.660
  274DIO    C1615311   3.507   2.103   4.718
  274DIO    C1715312   3.431   2.024   4.815
  274DIO    C1815313   3.500   1.980   4.936
  274DIO    C1915314   3.631   2.032   4.969
  274DIO     F615315   3.694   1.976   5.075
  274DIO    C2015316   3.290   1.978   4.785
  274DIO     O315317   3.221   2.062   4.692
  274DIO    C2115318   3.177   2.184   4.751
  274DIO    C2215319   3.088   2.158   4.872
  274DIO    C2315320   3.169   2.070   4.968
  274DIO     O415321   3.213   1.952   4.903
  274DIO    C2415322   2.955   2.088   4.836
  274DIO    C2515323   2.865   2.163   4.737
  274DIO    C2615324   2.826   2.302   4.784
  274DIO     H115325   4.547   2.027   4.903
  274DIO     H215326   4.505   2.460   4.820
  274DIO     H315327   4.328   2.320   4.648
  274DIO     H415328   4.077   2.292   4.638
  274DIO     H515329   4.078   2.102   5.031
  274DIO     H615330   3.469   2.120   4.619
  274DIO     H715331   3.457   1.904   5.000
  274DIO     H815332   3.300   1.881   4.735
  274DIO     H915333   3.264   2.244   4.779
  274DIO    H1015334   3.124   2.241   4.674
  274DIO    H1115335   3.065   2.253   4.921
  274DIO    H1215336   3.108   2.041   5.054
  274DIO    H1315337   3.255   2.125   5.008
  274DIO    H1415338   2.975   1.988   4.794
  274DIO    H1515339   2.899   2.071   4.928
  274DIO    H1615340   2.912   2.168   4.639
  274DIO    H1715341   2.773   2.104   4.724
  274DIO    H1815342   2.782   2.300   4.884
  274DIO    H1915343   2.913   2.369   4.785
  274DIO    H2015344   2.752   2.345   4.715
  275DIO     F115345   9.614   8.667   1.072
  275DIO     C115346   9.536   8.769   1.114
  275DIO     C215347   9.392   8.758   1.100
  275DIO     C315348   9.303   8.869   1.143
  275DIO     C415349   9.369   8.988   1.201
  275DIO     C515350   9.513   8.996   1.213
  275DIO     F215351   9.569   9.105   1.271
  275DIO     C615352   9.597   8.887   1.170
  275DIO     F315353   9.731   8.896   1.182
  275DIO     C715354   9.157   8.861   1.129
  275DIO     C815355   9.080   8.970   1.065
  275DIO     C915356   8.935   8.962   1.051
  275DIO    C1015357   8.863   8.851   1.110
  275DIO    C1115358   8.935   8.739   1.167
  275DIO    C1215359   9.079   8.746   1.178
  275DIO     F415360   9.144   8.643   1.236
  275DIO     O115361   8.730   8.838   1.073
  275DIO    C1315362   8.636   8.789   1.163
  275DIO     O215363   8.635   8.777   1.288
  275DIO    C1415364   8.507   8.761   1.099
  275DIO    C1515365   8.440   8.860   1.011
  275DIO     F515366   8.503   8.975   0.979
  275DIO    C1615367   8.310   8.837   0.952
  275DIO    C1715368   8.234   8.717   0.985
  275DIO    C1815369   8.303   8.611   1.058
  275DIO    C1915370   8.434   8.633   1.115
  275DIO     F615371   8.497   8.526   1.168
  275DIO    C2015372   8.093   8.696   0.934
  275DIO     O315373   8.023   8.819   0.907
  275DIO    C2115374   7.980   8.884   1.026
  275DIO    C2215375   7.891   8.792   1.109
  275DIO    C2315376   7.972   8.666   1.136
  275DIO     O415377   8.016   8.607   1.014
  275DIO    C2415378   7.758   8.756   1.039
  275DIO    C2515379   7.667   8.875   1.003
  275DIO    C2615380   7.629   8.961   1.121
  275DIO     H115381   9.350   8.668   1.058
  275DIO     H215382   9.308   9.068   1.243
  275DIO     H315383   9.131   9.055   1.022
  275DIO     H415384   8.880   9.038   0.997
  275DIO     H515385   8.881   8.654   1.206
  275DIO     H615386   8.272   8.909   0.881
  275DIO     H715387   8.260   8.512   1.066
  275DIO     H815388   8.103   8.647   0.836
  275DIO     H915389   8.066   8.917   1.084
  275DIO    H1015390   7.927   8.975   0.996
  275DIO    H1115391   7.868   8.841   1.205
  275DIO    H1215392   7.911   8.591   1.189
  275DIO    H1315393   8.058   8.687   1.201
  275DIO    H1415394   7.778   8.700   0.947
  275DIO    H1515395   7.702   8.689   1.104
  275DIO    H1615396   7.715   8.937   0.926
  275DIO    H1715397   7.576   8.835   0.957
  275DIO    H1815398   7.585   8.901   1.202
  275DIO    H1915399   7.716   9.015   1.162
  275DIO    H2015400   7.555   9.036   1.091
  276DIO     F115401   9.955   3.243   3.313
  276DIO     C115402   9.877   3.138   3.346
  276DIO     C215403   9.733   3.154   3.350
  276DIO     C315404   9.644   3.042   3.387
  276DIO     C415405   9.710   2.912   3.417
  276DIO     C515406   9.854   2.899   3.412
  276DIO     F215407   9.910   2.778   3.436
  276DIO     C615408   9.938   3.011   3.376
  276DIO     F315409  10.072   2.997   3.373
  276DIO     C715410   9.498   3.057   3.392
  276DIO     C815411   9.421   3.013   3.511
  276DIO     C915412   9.276   3.027   3.516
  276DIO    C1015413   9.204   3.076   3.400
  276DIO    C1115414   9.276   3.127   3.285
  276DIO    C1215415   9.420   3.115   3.281
  276DIO     F415416   9.485   3.158   3.171
  276DIO     O115417   9.071   3.109   3.421
  276DIO    C1315418   8.977   3.091   3.320
  276DIO     O215419   8.976   3.021   3.216
  276DIO    C1415420   8.848   3.153   3.352
  276DIO    C1515421   8.781   3.132   3.483
  276DIO     F515422   8.844   3.063   3.580
  276DIO    C1615423   8.651   3.187   3.514
  276DIO    C1715424   8.575   3.260   3.412
  276DIO    C1815425   8.644   3.296   3.289
  276DIO    C1915426   8.775   3.242   3.259
  276DIO     F615427   8.838   3.291   3.150
  276DIO    C2015428   8.434   3.308   3.439
  276DIO     O315429   8.364   3.230   3.537
  276DIO    C2115430   8.321   3.104   3.487
  276DIO    C2215431   8.232   3.122   3.364
  276DIO    C2315432   8.313   3.203   3.263
  276DIO     O415433   8.357   3.326   3.320
  276DIO    C2415434   8.099   3.195   3.396
  276DIO    C2515435   8.008   3.126   3.499
  276DIO    C2615436   7.970   2.984   3.461
  276DIO     H115437   9.691   3.251   3.325
  276DIO     H215438   9.649   2.824   3.435
  276DIO     H315439   9.472   2.974   3.598
  276DIO     H415440   9.221   3.003   3.606
  276DIO     H515441   9.222   3.168   3.201
  276DIO     H615442   8.613   3.176   3.614
  276DIO     H715443   8.601   3.368   3.220
  276DIO     H815444   8.444   3.407   3.483
  276DIO     H915445   8.407   3.042   3.462
  276DIO    H1015446   8.268   3.052   3.567
  276DIO    H1115447   8.209   3.024   3.321
  276DIO    H1215448   8.252   3.228   3.175
  276DIO    H1315449   8.399   3.146   3.227
  276DIO    H1415450   8.119   3.297   3.431
  276DIO    H1515451   8.043   3.205   3.302
  276DIO    H1615452   8.056   3.127   3.597
  276DIO    H1715453   7.917   3.186   3.508
  276DIO    H1815454   7.926   2.979   3.361
  276DIO    H1915455   8.057   2.917   3.464
  276DIO    H2015456   7.896   2.945   3.533
  277DIO     F115457   7.972   6.546   0.580
  277DIO     C115458   7.895   6.459   0.648
  277DIO     C215459   7.750   6.476   0.646
  277DIO     C315460   7.662   6.384   0.720
  277DIO     C415461   7.727   6.274   0.794
  277DIO     C515462   7.871   6.259   0.795
  277DIO     F215463   7.927   6.155   0.860
  277DIO     C615464   7.955   6.351   0.722
  277DIO     F315465   8.089   6.337   0.724
  277DIO     C715466   7.515   6.400   0.720
  277DIO     C815467   7.438   6.401   0.847
  277DIO     C915468   7.293   6.416   0.847
  277DIO    C1015469   7.221   6.421   0.721
  277DIO    C1115470   7.293   6.427   0.595
  277DIO    C1215471   7.437   6.415   0.596
  277DIO     F415472   7.502   6.416   0.477
  277DIO     O115473   7.089   6.459   0.728
  277DIO    C1315474   6.994   6.406   0.641
  277DIO     O215475   6.993   6.303   0.568
  277DIO    C1415476   6.865   6.475   0.648
  277DIO    C1515477   6.799   6.503   0.778
  277DIO     F515478   6.861   6.473   0.894
  277DIO    C1615479   6.668   6.565   0.787
  277DIO    C1715480   6.592   6.596   0.667
  277DIO    C1815481   6.661   6.586   0.539
  277DIO    C1915482   6.793   6.525   0.530
  277DIO     F615483   6.855   6.532   0.410
  277DIO    C2015484   6.451   6.651   0.675
  277DIO     O315485   6.382   6.613   0.794
  277DIO    C2115486   6.338   6.478   0.792
  277DIO    C2215487   6.249   6.451   0.671
  277DIO    C2315488   6.330   6.491   0.547
  277DIO     O415489   6.374   6.626   0.557
  277DIO    C2415490   6.116   6.530   0.674
  277DIO    C2515491   6.026   6.502   0.795
  277DIO    C2615492   5.987   6.356   0.811
  277DIO     H115493   7.708   6.557   0.588
  277DIO     H215494   7.667   6.198   0.843
  277DIO     H315495   7.490   6.396   0.941
  277DIO     H415496   7.238   6.426   0.939
  277DIO     H515497   7.239   6.436   0.502
  277DIO     H615498   6.630   6.590   0.885
  277DIO     H715499   6.618   6.629   0.449
  277DIO     H815500   6.461   6.760   0.680
  277DIO     H915501   6.425   6.411   0.791
  277DIO    H1015502   6.285   6.458   0.885
  277DIO    H1115503   6.227   6.344   0.665
  277DIO    H1215504   6.269   6.482   0.457
  277DIO    H1315505   6.416   6.424   0.534
  277DIO    H1415506   6.136   6.638   0.671
  277DIO    H1515507   6.060   6.507   0.583
  277DIO    H1615508   6.073   6.538   0.887
  277DIO    H1715509   5.934   6.561   0.783
  277DIO    H1815510   5.943   6.316   0.719
  277DIO    H1915511   6.074   6.295   0.837
  277DIO    H2015512   5.914   6.345   0.891
  278DIO     F115513   9.783   5.625   5.646
  278DIO     C115514   9.705   5.590   5.751
  278DIO     C215515   9.561   5.603   5.740
  278DIO     C315516   9.472   5.567   5.853
  278DIO     C415517   9.538   5.516   5.975
  278DIO     C515518   9.682   5.504   5.984
  278DIO     F215519   9.738   5.453   6.096
  278DIO     C615520   9.766   5.540   5.872
  278DIO     F315521   9.900   5.530   5.882
  278DIO     C715522   9.326   5.580   5.844
  278DIO     C815523   9.249   5.651   5.948
  278DIO     C915524   9.104   5.664   5.940
  278DIO    C1015525   9.032   5.598   5.833
  278DIO    C1115526   9.104   5.534   5.724
  278DIO    C1215527   9.248   5.524   5.732
  278DIO     F415528   9.313   5.460   5.632
  278DIO     O115529   8.899   5.634   5.818
  278DIO    C1315530   8.805   5.542   5.774
  278DIO     O215531   8.804   5.416   5.770
  278DIO    C1415532   8.676   5.604   5.742
  278DIO    C1515533   8.609   5.698   5.835
  278DIO     F515534   8.672   5.737   5.948
  278DIO    C1615535   8.479   5.755   5.809
  278DIO    C1715536   8.403   5.715   5.691
  278DIO    C1815537   8.472   5.636   5.589
  278DIO    C1915538   8.603   5.580   5.616
  278DIO     F615539   8.666   5.520   5.512
  278DIO    C2015540   8.262   5.765   5.668
  278DIO     O315541   8.192   5.799   5.788
  278DIO    C2115542   8.149   5.685   5.861
  278DIO    C2215543   8.060   5.596   5.774
  278DIO    C2315544   8.141   5.561   5.649
  278DIO     O415545   8.185   5.679   5.583
  278DIO    C2415546   7.927   5.664   5.734
  278DIO    C2515547   7.836   5.707   5.850
  278DIO    C2615548   7.798   5.594   5.943
  278DIO     H115549   9.519   5.639   5.647
  278DIO     H215550   9.477   5.479   6.057
  278DIO     H315551   9.300   5.699   6.031
  278DIO     H415552   9.049   5.723   6.012
  278DIO     H515553   9.050   5.490   5.642
  278DIO     H615554   8.441   5.830   5.877
  278DIO     H715555   8.429   5.622   5.491
  278DIO     H815556   8.272   5.859   5.612
  278DIO     H915557   8.235   5.629   5.897
  278DIO    H1015558   8.096   5.720   5.950
  278DIO    H1115559   8.037   5.503   5.828
  278DIO    H1215560   8.080   5.504   5.578
  278DIO    H1315561   8.227   5.498   5.675
  278DIO    H1415562   7.947   5.752   5.672
  278DIO    H1515563   7.871   5.594   5.671
  278DIO    H1615564   7.884   5.788   5.907
  278DIO    H1715565   7.745   5.750   5.807
  278DIO    H1815566   7.754   5.510   5.888
  278DIO    H1915567   7.885   5.557   5.999
  278DIO    H2015568   7.724   5.629   6.016
  279DIO     F115569   4.934   2.022   7.338
  279DIO     C115570   4.857   2.085   7.428
  279DIO     C215571   4.712   2.084   7.411
  279DIO     C315572   4.624   2.154   7.506
  279DIO     C415573   4.689   2.223   7.620
  279DIO     C515574   4.833   2.223   7.635
  279DIO     F215575   4.889   2.283   7.742
  279DIO     C615576   4.917   2.154   7.539
  279DIO     F315577   5.051   2.155   7.554
  279DIO     C715578   4.477   2.155   7.490
  279DIO     C815579   4.400   2.281   7.495
  279DIO     C915580   4.255   2.282   7.480
  279DIO    C1015581   4.183   2.157   7.470
  279DIO    C1115582   4.255   2.031   7.457
  279DIO    C1215583   4.399   2.031   7.470
  279DIO     F415584   4.464   1.913   7.463
  279DIO     O115585   4.051   2.166   7.432
  279DIO    C1315586   3.956   2.076   7.480
  279DIO     O215587   3.955   1.998   7.579
  279DIO    C1415588   3.827   2.087   7.412
  279DIO    C1515589   3.761   2.218   7.391
  279DIO     F515590   3.823   2.332   7.426
  279DIO    C1615591   3.630   2.230   7.329
  279DIO    C1715592   3.554   2.111   7.291
  279DIO    C1815593   3.623   1.983   7.295
  279DIO    C1915594   3.755   1.971   7.356
  279DIO     F615595   3.817   1.852   7.343
  279DIO    C2015596   3.413   2.122   7.238
  279DIO     O315597   3.344   2.239   7.281
  279DIO    C2115598   3.300   2.230   7.416
  279DIO    C2215599   3.211   2.108   7.437
  279DIO    C2315600   3.292   1.986   7.391
  279DIO     O415601   3.336   2.003   7.257
  279DIO    C2415602   3.078   2.116   7.358
  279DIO    C2515603   2.988   2.234   7.392
  279DIO    C2615604   2.949   2.243   7.539
  279DIO     H115605   4.670   2.031   7.327
  279DIO     H215606   4.629   2.267   7.698
  279DIO     H315607   4.452   2.376   7.505
  279DIO     H415608   4.200   2.375   7.475
  279DIO     H515609   4.201   1.939   7.444
  279DIO     H615610   3.592   2.329   7.309
  279DIO     H715611   3.580   1.895   7.248
  279DIO     H815612   3.423   2.133   7.129
  279DIO     H915613   3.387   2.226   7.483
  279DIO    H1015614   3.247   2.323   7.441
  279DIO    H1115615   3.189   2.097   7.543
  279DIO    H1215616   3.231   1.896   7.395
  279DIO    H1315617   3.378   1.970   7.457
  279DIO    H1415618   3.098   2.118   7.250
  279DIO    H1515619   3.022   2.023   7.377
  279DIO    H1615620   3.035   2.328   7.361
  279DIO    H1715621   2.896   2.225   7.332
  279DIO    H1815622   2.905   2.149   7.574
  279DIO    H1915623   3.036   2.267   7.601
  279DIO    H2015624   2.876   2.323   7.553
  280DIO     F115625   4.830   4.943   4.366
  280DIO     C115626   4.752   4.928   4.475
  280DIO     C215627   4.608   4.938   4.462
  280DIO     C315628   4.519   4.924   4.580
  280DIO     C415629   4.585   4.897   4.710
  280DIO     C515630   4.729   4.886   4.720
  280DIO     F215631   4.784   4.857   4.840
  280DIO     C615632   4.813   4.902   4.604
  280DIO     F315633   4.947   4.893   4.615
  280DIO     C715634   4.373   4.936   4.569
  280DIO     C815635   4.296   5.025   4.658
  280DIO     C915636   4.151   5.035   4.648
  280DIO    C1015637   4.078   4.951   4.555
  280DIO    C1115638   4.151   4.869   4.460
  280DIO    C1215639   4.295   4.860   4.469
  280DIO     F415640   4.360   4.778   4.383
  280DIO     O115641   3.946   4.984   4.533
  280DIO    C1315642   3.852   4.885   4.507
  280DIO     O215643   3.851   4.761   4.526
  280DIO    C1415644   3.723   4.940   4.465
  280DIO    C1515645   3.656   5.050   4.539
  280DIO     F515646   3.719   5.109   4.643
  280DIO    C1615647   3.526   5.101   4.502
  280DIO    C1715648   3.450   5.040   4.394
  280DIO    C1815649   3.519   4.944   4.308
  280DIO    C1915650   3.650   4.894   4.344
  280DIO     F615651   3.713   4.816   4.253
  280DIO    C2015652   3.309   5.085   4.362
  280DIO     O315653   3.239   5.140   4.474
  280DIO    C2115654   3.196   5.041   4.566
  280DIO    C2215655   3.107   4.938   4.497
  280DIO    C2315656   3.188   4.881   4.381
  280DIO     O415657   3.232   4.985   4.294
  280DIO    C2415658   2.974   4.997   4.445
  280DIO    C2515659   2.883   5.061   4.551
  280DIO    C2615660   2.845   4.967   4.664
  280DIO     H115661   4.565   4.957   4.364
  280DIO     H215662   4.524   4.876   4.797
  280DIO     H315663   4.347   5.087   4.730
  280DIO     H415664   4.096   5.106   4.708
  280DIO     H515665   4.097   4.810   4.387
  280DIO     H615666   3.487   5.187   4.555
  280DIO     H715667   3.476   4.912   4.214
  280DIO     H815668   3.319   5.167   4.290
  280DIO     H915669   3.282   4.993   4.612
  280DIO    H1015670   3.143   5.092   4.647
  280DIO    H1115671   3.084   4.857   4.568
  280DIO    H1215672   3.126   4.812   4.322
  280DIO    H1315673   3.274   4.824   4.417
  280DIO    H1415674   2.994   5.073   4.368
  280DIO    H1515675   2.918   4.917   4.396
  280DIO    H1615676   2.931   5.151   4.592
  280DIO    H1715677   2.792   5.096   4.501
  280DIO    H1815678   2.801   4.875   4.625
  280DIO    H1915679   2.931   4.941   4.726
  280DIO    H2015680   2.771   5.015   4.729
  281DIO     F115681   3.356   2.876   3.770
  281DIO     C115682   3.279   2.862   3.661
  281DIO     C215683   3.134   2.855   3.676
  281DIO     C315684   3.046   2.839   3.559
  281DIO     C415685   3.111   2.831   3.426
  281DIO     C515686   3.255   2.839   3.414
  281DIO     F215687   3.311   2.836   3.291
  281DIO     C615688   3.339   2.854   3.530
  281DIO     F315689   3.473   2.860   3.517
  281DIO     C715690   2.899   2.830   3.573
  281DIO     C815691   2.822   2.721   3.509
  281DIO     C915692   2.677   2.714   3.522
  281DIO    C1015693   2.605   2.819   3.590
  281DIO    C1115694   2.677   2.924   3.660
  281DIO    C1215695   2.821   2.930   3.649
  281DIO     F415696   2.886   3.031   3.711
  281DIO     O115697   2.473   2.793   3.620
  281DIO    C1315698   2.378   2.895   3.619
  281DIO     O215699   2.377   3.011   3.568
  281DIO    C1415700   2.249   2.853   3.674
  281DIO    C1515701   2.183   2.728   3.631
  281DIO     F515702   2.245   2.644   3.546
  281DIO    C1615703   2.052   2.688   3.680
  281DIO    C1715704   1.976   2.775   3.769
  281DIO    C1815705   2.045   2.890   3.826
  281DIO    C1915706   2.177   2.929   3.778
  281DIO     F615707   2.239   3.028   3.846
  281DIO    C2015708   1.835   2.741   3.811
  281DIO     O315709   1.766   2.658   3.718
  281DIO    C2115710   1.722   2.729   3.603
  281DIO    C2215711   1.633   2.847   3.642
  281DIO    C2315712   1.714   2.932   3.740
  281DIO     O415713   1.758   2.855   3.851
  281DIO    C2415714   1.500   2.803   3.708
  281DIO    C2515715   1.410   2.714   3.622
  281DIO    C2615716   1.371   2.775   3.489
  281DIO     H115717   3.092   2.863   3.776
  281DIO     H215718   3.051   2.829   3.336
  281DIO     H315719   2.874   2.643   3.456
  281DIO     H415720   2.622   2.629   3.483
  281DIO     H515721   2.623   2.999   3.716
  281DIO     H615722   2.014   2.591   3.651
  281DIO     H715723   2.002   2.946   3.909
  281DIO     H815724   1.845   2.680   3.902
  281DIO     H915725   1.809   2.764   3.546
  281DIO    H1015726   1.669   2.659   3.538
  281DIO    H1115727   1.611   2.907   3.553
  281DIO    H1215728   1.653   3.014   3.779
  281DIO    H1315729   1.800   2.978   3.689
  281DIO    H1415730   1.520   2.750   3.802
  281DIO    H1515731   1.444   2.893   3.735
  281DIO    H1615732   1.457   2.616   3.606
  281DIO    H1715733   1.318   2.694   3.679
  281DIO    H1815734   1.327   2.874   3.502
  281DIO    H1915735   1.458   2.784   3.422
  281DIO    H2015736   1.298   2.712   3.438
  282DIO     F115737   7.436   6.612   7.882
  282DIO     C115738   7.358   6.544   7.968
  282DIO     C215739   7.214   6.560   7.962
  282DIO     C315740   7.126   6.488   8.057
  282DIO     C415741   7.191   6.399   8.155
  282DIO     C515742   7.335   6.385   8.159
  282DIO     F215743   7.391   6.299   8.247
  282DIO     C615744   7.419   6.456   8.066
  282DIO     F315745   7.553   6.443   8.071
  282DIO     C715746   6.979   6.504   8.053
  282DIO     C815747   6.902   6.535   8.175
  282DIO     C915748   6.757   6.550   8.172
  282DIO    C1015749   6.685   6.524   8.049
  282DIO    C1115750   6.757   6.501   7.925
  282DIO    C1215751   6.901   6.489   7.928
  282DIO     F415752   6.966   6.461   7.813
  282DIO     O115753   6.553   6.563   8.046
  282DIO    C1315754   6.458   6.491   7.974
  282DIO     O215755   6.457   6.374   7.928
  282DIO    C1415756   6.329   6.560   7.965
  282DIO    C1515757   6.263   6.617   8.084
  282DIO     F515758   6.325   6.615   8.204
  282DIO    C1615759   6.132   6.680   8.079
  282DIO    C1715760   6.056   6.682   7.954
  282DIO    C1815761   6.125   6.642   7.832
  282DIO    C1915762   6.256   6.581   7.838
  282DIO     F615763   6.319   6.559   7.720
  282DIO    C2015764   5.915   6.737   7.949
  282DIO     O315765   5.846   6.728   8.074
  282DIO    C2115766   5.802   6.596   8.104
  282DIO    C2215767   5.713   6.542   7.992
  282DIO    C2315768   5.794   6.551   7.863
  282DIO     O415769   5.838   6.685   7.841
  282DIO    C2415770   5.580   6.619   7.977
  282DIO    C2515771   5.490   6.621   8.101
  282DIO    C2615772   5.451   6.483   8.151
  282DIO     H115773   7.172   6.625   7.887
  282DIO     H215774   7.130   6.336   8.220
  282DIO     H315775   6.954   6.552   8.269
  282DIO     H415776   6.702   6.581   8.259
  282DIO     H515777   6.703   6.487   7.832
  282DIO     H615778   6.094   6.728   8.168
  282DIO     H715779   6.082   6.662   7.735
  282DIO     H815780   5.925   6.844   7.929
  282DIO     H915781   5.889   6.531   8.119
  282DIO    H1015782   5.749   6.599   8.199
  282DIO    H1115783   5.691   6.436   8.012
  282DIO    H1215784   5.733   6.521   7.777
  282DIO    H1315785   5.880   6.483   7.866
  282DIO    H1415786   5.600   6.723   7.949
  282DIO    H1515787   5.524   6.575   7.894
  282DIO    H1615788   5.537   6.678   8.182
  282DIO    H1715789   5.398   6.676   8.075
  282DIO    H1815790   5.407   6.422   8.071
  282DIO    H1915791   5.538   6.429   8.191
  282DIO    H2015792   5.378   6.491   8.232
  283DIO     F115793   8.624   4.715   2.294
  283DIO     C115794   8.546   4.623   2.355
  283DIO     C215795   8.402   4.640   2.354
  283DIO     C315796   8.313   4.543   2.421
  283DIO     C415797   8.379   4.427   2.487
  283DIO     C515798   8.523   4.413   2.486
  283DIO     F215799   8.579   4.304   2.544
  283DIO     C615800   8.607   4.510   2.420
  283DIO     F315801   8.741   4.496   2.421
  283DIO     C715802   8.167   4.559   2.422
  283DIO     C815803   8.090   4.550   2.548
  283DIO     C915804   7.945   4.566   2.550
  283DIO    C1015805   7.873   4.579   2.425
  283DIO    C1115806   7.945   4.595   2.300
  283DIO    C1215807   8.089   4.583   2.299
  283DIO     F415808   8.154   4.593   2.181
  283DIO     O115809   7.740   4.617   2.435
  283DIO    C1315810   7.646   4.571   2.344
  283DIO     O215811   7.645   4.474   2.263
  283DIO    C1415812   7.517   4.639   2.357
  283DIO    C1515813   7.451   4.657   2.488
  283DIO     F515814   7.513   4.618   2.601
  283DIO    C1615815   7.320   4.718   2.502
  283DIO    C1715816   7.244   4.759   2.384
  283DIO    C1815817   7.313   4.758   2.255
  283DIO    C1915818   7.444   4.698   2.242
  283DIO     F615819   7.507   4.715   2.123
  283DIO    C2015820   7.103   4.812   2.396
  283DIO     O315821   7.034   4.766   2.512
  283DIO    C2115822   6.990   4.631   2.500
  283DIO    C2215823   6.901   4.613   2.377
  283DIO    C2315824   6.982   4.662   2.257
  283DIO     O415825   7.026   4.796   2.277
  283DIO    C2415826   6.768   4.692   2.387
  283DIO    C2515827   6.678   4.655   2.505
  283DIO    C2615828   6.639   4.508   2.509
  283DIO     H115829   8.360   4.726   2.303
  283DIO     H215830   8.318   4.348   2.529
  283DIO     H315831   8.141   4.538   2.643
  283DIO     H415832   7.890   4.568   2.643
  283DIO     H515833   7.891   4.611   2.208
  283DIO     H615834   7.282   4.736   2.602
  283DIO     H715835   7.270   4.808   2.169
  283DIO     H815836   7.113   4.921   2.410
  283DIO     H915837   7.077   4.564   2.494
  283DIO    H1015838   6.937   4.604   2.591
  283DIO    H1115839   6.878   4.507   2.363
  283DIO    H1215840   6.921   4.661   2.166
  283DIO    H1315841   7.068   4.597   2.238
  283DIO    H1415842   6.788   4.800   2.391
  283DIO    H1515843   6.712   4.676   2.294
  283DIO    H1615844   6.725   4.684   2.599
  283DIO    H1715845   6.586   4.715   2.497
  283DIO    H1815846   6.595   4.476   2.415
  283DIO    H1915847   6.726   4.445   2.531
  283DIO    H2015848   6.565   4.491   2.589
  284DIO     F115849   8.627   3.343   7.791
  284DIO     C115850   8.550   3.250   7.732
  284DIO     C215851   8.405   3.257   7.747
  284DIO     C315852   8.317   3.156   7.686
  284DIO     C415853   8.382   3.049   7.608
  284DIO     C515854   8.526   3.043   7.594
  284DIO     F215855   8.582   2.946   7.519
  284DIO     C615856   8.610   3.143   7.656
  284DIO     F315857   8.744   3.136   7.643
  284DIO     C715858   8.170   3.161   7.701
  284DIO     C815859   8.093   3.043   7.745
  284DIO     C915860   7.948   3.048   7.760
  284DIO    C1015861   7.876   3.168   7.721
  284DIO    C1115862   7.948   3.288   7.684
  284DIO    C1215863   8.092   3.284   7.673
  284DIO     F415864   8.157   3.395   7.633
  284DIO     O115865   7.744   3.174   7.760
  284DIO    C1315866   7.649   3.238   7.680
  284DIO     O215867   7.648   3.272   7.559
  284DIO    C1415868   7.520   3.254   7.748
  284DIO    C1515869   7.454   3.142   7.817
  284DIO     F515870   7.516   3.023   7.829
  284DIO    C1615871   7.323   3.154   7.879
  284DIO    C1715872   7.247   3.278   7.868
  284DIO    C1815873   7.316   3.395   7.815
  284DIO    C1915874   7.448   3.383   7.755
  284DIO     F615875   7.510   3.498   7.721
  284DIO    C2015876   7.106   3.289   7.922
  284DIO     O315877   7.037   3.164   7.927
  284DIO    C2115878   6.993   3.121   7.799
  284DIO    C2215879   6.904   3.225   7.732
  284DIO    C2315880   6.985   3.355   7.728
  284DIO     O415881   7.029   3.392   7.858
  284DIO    C2415882   6.771   3.249   7.808
  284DIO    C2515883   6.681   3.126   7.823
  284DIO    C2615884   6.642   3.061   7.691
  284DIO     H115885   8.363   3.339   7.804
  284DIO     H215886   8.322   2.977   7.553
  284DIO     H315887   8.145   2.952   7.773
  284DIO     H415888   7.893   2.964   7.800
  284DIO     H515889   7.894   3.379   7.661
  284DIO     H615890   7.285   3.071   7.936
  284DIO     H715891   7.273   3.494   7.824
  284DIO     H815892   7.116   3.321   8.026
  284DIO     H915893   7.080   3.098   7.736
  284DIO    H1015894   6.940   3.026   7.812
  284DIO    H1115895   6.882   3.194   7.630
  284DIO    H1215896   6.924   3.437   7.689
  284DIO    H1315897   7.071   3.345   7.661
  284DIO    H1415898   6.791   3.288   7.908
  284DIO    H1515899   6.715   3.326   7.755
  284DIO    H1615900   6.728   3.051   7.888
  284DIO    H1715901   6.589   3.157   7.875
  284DIO    H1815902   6.598   3.134   7.622
  284DIO    H1915903   6.729   3.015   7.642
  284DIO    H2015904   6.569   2.982   7.708
  285DIO     F115905   9.955   8.332   5.921
  285DIO     C115906   9.877   8.241   5.983
  285DIO     C215907   9.733   8.258   5.982
  285DIO     C315908   9.644   8.163   6.052
  285DIO     C415909   9.710   8.048   6.120
  285DIO     C515910   9.854   8.034   6.120
  285DIO     F215911   9.910   7.926   6.179
  285DIO     C615912   9.938   8.129   6.051
  285DIO     F315913  10.072   8.115   6.053
  285DIO     C715914   9.498   8.179   6.053
  285DIO     C815915   9.421   8.173   6.179
  285DIO     C915916   9.276   8.188   6.180
  285DIO    C1015917   9.204   8.199   6.055
  285DIO    C1115918   9.276   8.213   5.929
  285DIO    C1215919   9.420   8.200   5.929
  285DIO     F415920   9.485   8.207   5.811
  285DIO     O115921   9.071   8.237   6.064
  285DIO    C1315922   8.977   8.189   5.974
  285DIO     O215923   8.976   8.090   5.895
  285DIO    C1415924   8.848   8.258   5.985
  285DIO    C1515925   8.781   8.278   6.116
  285DIO     F515926   8.844   8.242   6.230
  285DIO    C1615927   8.651   8.340   6.129
  285DIO    C1715928   8.575   8.378   6.010
  285DIO    C1815929   8.644   8.374   5.881
  285DIO    C1915930   8.775   8.314   5.869
  285DIO     F615931   8.838   8.328   5.750
  285DIO    C2015932   8.434   8.431   6.021
  285DIO     O315933   8.364   8.387   6.138
  285DIO    C2115934   8.321   8.252   6.128
  285DIO    C2215935   8.232   8.232   6.006
  285DIO    C2315936   8.313   8.279   5.885
  285DIO     O415937   8.357   8.413   5.902
  285DIO    C2415938   8.099   8.311   6.014
  285DIO    C2515939   8.008   8.277   6.133
  285DIO    C2615940   7.970   8.130   6.141
  285DIO     H115941   9.691   8.343   5.929
  285DIO     H215942   9.649   7.970   6.164
  285DIO     H315943   9.472   8.163   6.273
  285DIO     H415944   9.221   8.193   6.273
  285DIO     H515945   9.222   8.226   5.837
  285DIO     H615946   8.613   8.360   6.228
  285DIO     H715947   8.601   8.422   5.794
  285DIO     H815948   8.444   8.540   6.032
  285DIO     H915949   8.407   8.186   6.124
  285DIO    H1015950   8.268   8.227   6.221
  285DIO    H1115951   8.209   8.126   5.994
  285DIO    H1215952   8.252   8.275   5.794
  285DIO    H1315953   8.399   8.213   5.868
  285DIO    H1415954   8.119   8.419   6.016
  285DIO    H1515955   8.043   8.292   5.922
  285DIO    H1615956   8.056   8.308   6.227
  285DIO    H1715957   7.917   8.336   6.124
  285DIO    H1815958   7.926   8.095   6.047
  285DIO    H1915959   8.057   8.067   6.164
  285DIO    H2015960   7.896   8.115   6.220
  286DIO     F115961   2.953   9.796   7.325
  286DIO     C115962   2.876   9.814   7.216
  286DIO     C215963   2.731   9.803   7.230
  286DIO     C315964   2.643   9.819   7.112
  286DIO     C415965   2.708   9.849   6.983
  286DIO     C515966   2.852   9.860   6.972
  286DIO     F215967   2.908   9.891   6.854
  286DIO     C615968   2.936   9.842   7.089
  286DIO     F315969   3.070   9.851   7.078
  286DIO     C715970   2.496   9.807   7.123
  286DIO     C815971   2.419   9.721   7.031
  286DIO     C915972   2.274   9.709   7.042
  286DIO    C1015973   2.202   9.792   7.137
  286DIO    C1115974   2.274   9.872   7.233
  286DIO    C1215975   2.418   9.881   7.225
  286DIO     F415976   2.483   9.961   7.312
  286DIO     O115977   2.070   9.759   7.158
  286DIO    C1315978   1.975   9.857   7.185
  286DIO     O215979   1.974   9.982   7.169
  286DIO    C1415980   1.846   9.801   7.227
  286DIO    C1515981   1.780   9.693   7.151
  286DIO     F515982   1.842   9.636   7.046
  286DIO    C1615983   1.649   9.641   7.186
  286DIO    C1715984   1.573   9.700   7.296
  286DIO    C1815985   1.642   9.795   7.383
  286DIO    C1915986   1.774   9.845   7.348
  286DIO     F615987   1.836   9.921   7.441
  286DIO    C2015988   1.432   9.655   7.327
  286DIO     O315989   1.363   9.601   7.214
  286DIO    C2115990   1.319   9.702   7.124
  286DIO    C2215991   1.230   9.804   7.194
  286DIO    C2315992   1.311   9.859   7.312
  286DIO     O415993   1.355   9.753   7.397
  286DIO    C2415994   1.097   9.743   7.245
  286DIO    C2515995   1.007   9.682   7.138
  286DIO    C2615996   0.968   9.778   7.027
  286DIO     H115997   2.689   9.782   7.327
  286DIO     H215998   2.648   9.872   6.896
  286DIO     H315999   2.471   9.660   6.958
  286DIO     H416000   2.219   9.640   6.980
  286DIO     H516001   2.220   9.929   7.307
  286DIO     H616002   1.611   9.556   7.132
  286DIO     H716003   1.599   9.824   7.478
  286DIO     H816004   1.442   9.571   7.397
  286DIO     H916005   1.406   9.751   7.079
  286DIO    H1016006   1.266   9.653   7.042
  286DIO    H1116007   1.208   9.886   7.126
  286DIO    H1216008   1.250   9.927   7.372
  286DIO    H1316009   1.397   9.917   7.276
  286DIO    H1416010   1.117   9.667   7.321
  286DIO    H1516011   1.041   9.823   7.296
  286DIO    H1616012   1.054   9.593   7.095
  286DIO    H1716013   0.915   9.646   7.187
  286DIO    H1816014   0.924   9.870   7.067
  286DIO    H1916015   1.055   9.805   6.966
  286DIO    H2016016   0.895   9.731   6.961
  287DIO     F116017   5.053   3.837   9.699
  287DIO     C116018   4.975   3.747   9.762
  287DIO     C216019   4.831   3.764   9.760
  287DIO     C316020   4.742   3.668   9.830
  287DIO     C416021   4.808   3.554   9.899
  287DIO     C516022   4.952   3.540   9.898
  287DIO     F216023   5.007   3.432   9.958
  287DIO     C616024   5.036   3.635   9.830
  287DIO     F316025   5.169   3.621   9.831
  287DIO     C716026   4.596   3.684   9.831
  287DIO     C816027   4.519   3.679   9.957
  287DIO     C916028   4.374   3.694   9.958
  287DIO    C1016029   4.301   3.705   9.833
  287DIO    C1116030   4.374   3.718   9.708
  287DIO    C1216031   4.518   3.705   9.707
  287DIO     F416032   4.583   3.712   9.589
  287DIO     O116033   4.169   3.743   9.842
  287DIO    C1316034   4.075   3.694   9.752
  287DIO     O216035   4.074   3.595   9.674
  287DIO    C1416036   3.946   3.763   9.763
  287DIO    C1516037   3.879   3.784   9.894
  287DIO     F516038   3.942   3.748  10.008
  287DIO    C1616039   3.748   3.845   9.906
  287DIO    C1716040   3.673   3.883   9.788
  287DIO    C1816041   3.741   3.879   9.659
  287DIO    C1916042   3.873   3.819   9.647
  287DIO     F616043   3.936   3.832   9.528
  287DIO    C2016044   3.532   3.937   9.798
  287DIO     O316045   3.462   3.893   9.915
  287DIO    C2116046   3.419   3.758   9.906
  287DIO    C2216047   3.330   3.738   9.784
  287DIO    C2316048   3.410   3.784   9.663
  287DIO     O416049   3.455   3.918   9.679
  287DIO    C2416050   3.197   3.816   9.792
  287DIO    C2516051   3.106   3.783   9.911
  287DIO    C2616052   3.068   3.636   9.919
  287DIO     H116053   4.788   3.848   9.707
  287DIO     H216054   4.747   3.476   9.943
  287DIO     H316055   4.570   3.669  10.052
  287DIO     H416056   4.319   3.699  10.051
  287DIO     H516057   4.319   3.731   9.615
  287DIO     H616058   3.710   3.866  10.006
  287DIO     H716059   3.699   3.926   9.571
  287DIO     H816060   3.542   4.046   9.810
  287DIO     H916061   3.505   3.691   9.902
  287DIO    H1016062   3.366   3.733   9.999
  287DIO    H1116063   3.307   3.631   9.773
  287DIO    H1216064   3.349   3.780   9.572
  287DIO    H1316065   3.497   3.718   9.646
  287DIO    H1416066   3.217   3.924   9.794
  287DIO    H1516067   3.140   3.798   9.699
  287DIO    H1616068   3.154   3.814  10.005
  287DIO    H1716069   3.014   3.842   9.902
  287DIO    H1816070   3.024   3.601   9.825
  287DIO    H1916071   3.154   3.573   9.943
  287DIO    H2016072   2.994   3.621   9.999
  288DIO     F116073   8.814   2.597   7.710
  288DIO     C116074   8.736   2.621   7.602
  288DIO     C216075   8.592   2.609   7.615
  288DIO     C316076   8.503   2.632   7.499
  288DIO     C416077   8.569   2.670   7.371
  288DIO     C516078   8.713   2.681   7.361
  288DIO     F216079   8.768   2.720   7.245
  288DIO     C616080   8.797   2.657   7.476
  288DIO     F316081   8.930   2.666   7.466
  288DIO     C716082   8.357   2.620   7.509
  288DIO     C816083   8.280   2.539   7.412
  288DIO     C916084   8.135   2.527   7.422
  288DIO    C1016085   8.062   2.604   7.521
  288DIO    C1116086   8.135   2.679   7.622
  288DIO    C1216087   8.279   2.688   7.614
  288DIO     F416088   8.344   2.763   7.706
  288DIO     O116089   7.930   2.569   7.540
  288DIO    C1316090   7.836   2.666   7.574
  288DIO     O216091   7.835   2.792   7.565
  288DIO    C1416092   7.706   2.608   7.612
  288DIO    C1516093   7.640   2.504   7.530
  288DIO     F516094   7.703   2.454   7.421
  288DIO    C1616095   7.509   2.450   7.562
  288DIO    C1716096   7.434   2.503   7.675
  288DIO    C1816097   7.502   2.592   7.767
  288DIO    C1916098   7.634   2.645   7.736
  288DIO     F616099   7.696   2.715   7.832
  288DIO    C2016100   7.293   2.456   7.704
  288DIO     O316101   7.223   2.409   7.588
  288DIO    C2116102   7.179   2.515   7.503
  288DIO    C2216103   7.091   2.612   7.580
  288DIO    C2316104   7.171   2.660   7.700
  288DIO     O416105   7.216   2.550   7.779
  288DIO    C2416106   6.958   2.549   7.627
  288DIO    C2516107   6.867   2.494   7.516
  288DIO    C2616108   6.829   2.596   7.411
  288DIO     H116109   8.549   2.583   7.711
  288DIO     H216110   8.508   2.698   7.285
  288DIO     H316111   8.331   2.482   7.336
  288DIO     H416112   8.080   2.461   7.356
  288DIO     H516113   8.080   2.731   7.700
  288DIO     H616114   7.471   2.368   7.502
  288DIO     H716115   7.459   2.616   7.864
  288DIO     H816116   7.303   2.368   7.769
  288DIO     H916117   7.266   2.567   7.461
  288DIO    H1016118   7.127   2.470   7.418
  288DIO    H1116119   7.068   2.698   7.516
  288DIO    H1216120   7.110   2.724   7.764
  288DIO    H1316121   7.257   2.720   7.668
  288DIO    H1416122   6.978   2.468   7.698
  288DIO    H1516123   6.901   2.625   7.682
  288DIO    H1616124   6.914   2.407   7.468
  288DIO    H1716125   6.775   2.456   7.563
  288DIO    H1816126   6.785   2.685   7.457
  288DIO    H1916127   6.915   2.627   7.351
  288DIO    H2016128   6.755   2.553   7.342
  289DIO     F116129   5.544   7.616   2.077
  289DIO     C116130   5.466   7.676   2.169
  289DIO     C216131   5.322   7.676   2.153
  289DIO     C316132   5.233   7.743   2.250
  289DIO     C416133   5.299   7.807   2.366
  289DIO     C516134   5.443   7.807   2.381
  289DIO     F216135   5.498   7.863   2.490
  289DIO     C616136   5.527   7.741   2.283
  289DIO     F316137   5.660   7.742   2.298
  289DIO     C716138   5.087   7.744   2.234
  289DIO     C816139   5.010   7.870   2.243
  289DIO     C916140   4.865   7.871   2.228
  289DIO    C1016141   4.792   7.746   2.214
  289DIO    C1116142   4.865   7.622   2.197
  289DIO    C1216143   5.009   7.621   2.209
  289DIO     F416144   5.074   7.503   2.199
  289DIO     O116145   4.660   7.757   2.176
  289DIO    C1316146   4.566   7.665   2.222
  289DIO     O216147   4.565   7.584   2.318
  289DIO    C1416148   4.436   7.679   2.153
  289DIO    C1516149   4.370   7.810   2.137
  289DIO     F516150   4.433   7.923   2.176
  289DIO    C1616151   4.239   7.824   2.076
  289DIO    C1716152   4.164   7.707   2.034
  289DIO    C1816153   4.232   7.578   2.034
  289DIO    C1916154   4.364   7.564   2.093
  289DIO     F616155   4.426   7.446   2.077
  289DIO    C2016156   4.023   7.719   1.981
  289DIO     O316157   3.953   7.835   2.028
  289DIO    C2116158   3.909   7.821   2.163
  289DIO    C2216159   3.821   7.699   2.179
  289DIO    C2316160   3.901   7.579   2.130
  289DIO     O416161   3.946   7.600   1.996
  289DIO    C2416162   3.688   7.709   2.101
  289DIO    C2516163   3.597   7.827   2.138
  289DIO    C2616164   3.559   7.831   2.285
  289DIO     H116165   5.279   7.625   2.067
  289DIO     H216166   5.238   7.849   2.446
  289DIO     H316167   5.061   7.964   2.257
  289DIO     H416168   4.810   7.964   2.227
  289DIO     H516169   4.810   7.530   2.180
  289DIO     H616170   4.201   7.924   2.058
  289DIO     H716171   4.189   7.492   1.984
  289DIO     H816172   4.033   7.734   1.872
  289DIO     H916173   3.996   7.815   2.229
  289DIO    H1016174   3.857   7.913   2.190
  289DIO    H1116175   3.798   7.684   2.285
  289DIO    H1216176   3.840   7.488   2.131
  289DIO    H1316177   3.987   7.560   2.195
  289DIO    H1416178   3.708   7.715   1.993
  289DIO    H1516179   3.631   7.616   2.117
  289DIO    H1616180   3.644   7.921   2.110
  289DIO    H1716181   3.505   7.820   2.078
  289DIO    H1816182   3.515   7.736   2.317
  289DIO    H1916183   3.645   7.852   2.349
  289DIO    H2016184   3.485   7.910   2.303
  290DIO     F116185   2.428   7.633   0.273
  290DIO     C116186   2.350   7.533   0.226
  290DIO     C216187   2.206   7.543   0.240
  290DIO     C316188   2.117   7.435   0.192
  290DIO     C416189   2.183   7.319   0.128
  290DIO     C516190   2.327   7.311   0.115
  290DIO     F216191   2.382   7.206   0.052
  290DIO     C616192   2.411   7.418   0.163
  290DIO     F316193   2.544   7.410   0.152
  290DIO     C716194   1.971   7.442   0.206
  290DIO     C816195   1.894   7.330   0.265
  290DIO     C916196   1.749   7.337   0.278
  290DIO    C1016197   1.676   7.451   0.225
  290DIO    C1116198   1.749   7.566   0.174
  290DIO    C1216199   1.893   7.560   0.163
  290DIO     F416200   1.958   7.666   0.110
  290DIO     O116201   1.544   7.462   0.263
  290DIO    C1316202   1.450   7.515   0.176
  290DIO     O216203   1.449   7.534   0.051
  290DIO    C1416204   1.321   7.540   0.241
  290DIO    C1516205   1.254   7.437   0.324
  290DIO     F516206   1.317   7.320   0.350
  290DIO    C1616207   1.123   7.457   0.384
  290DIO    C1716208   1.048   7.579   0.357
  290DIO    C1816209   1.116   7.688   0.290
  290DIO    C1916210   1.248   7.669   0.232
  290DIO     F616211   1.311   7.779   0.184
  290DIO    C2016212   0.907   7.596   0.410
  290DIO     O316213   0.837   7.473   0.430
  290DIO    C2116214   0.794   7.413   0.308
  290DIO    C2216215   0.705   7.509   0.230
  290DIO    C2316216   0.785   7.637   0.209
  290DIO     O416217   0.830   7.690   0.334
  290DIO    C2416218   0.572   7.542   0.302
  290DIO    C2516219   0.481   7.422   0.332
  290DIO    C2616220   0.443   7.341   0.208
  290DIO     H116221   2.163   7.631   0.287
  290DIO     H216222   2.122   7.241   0.082
  290DIO     H316223   1.945   7.243   0.303
  290DIO     H416224   1.694   7.259   0.329
  290DIO     H516225   1.694   7.653   0.140
  290DIO     H616226   1.085   7.381   0.451
  290DIO     H716227   1.074   7.788   0.288
  290DIO     H816228   0.917   7.640   0.509
  290DIO     H916229   0.880   7.384   0.248
  290DIO    H1016230   0.741   7.321   0.333
  290DIO    H1116231   0.682   7.466   0.132
  290DIO    H1216232   0.724   7.714   0.160
  290DIO    H1316233   0.872   7.619   0.144
  290DIO    H1416234   0.592   7.593   0.396
  290DIO    H1516235   0.515   7.612   0.240
  290DIO    H1616236   0.529   7.356   0.405
  290DIO    H1716237   0.389   7.459   0.379
  290DIO    H1816238   0.399   7.405   0.131
  290DIO    H1916239   0.529   7.290   0.166
  290DIO    H2016240   0.369   7.265   0.235
  291DIO     F116241   9.954   1.821   0.469
  291DIO     C116242   9.877   1.872   0.372
  291DIO     C216243   9.732   1.857   0.381
  291DIO     C316244   9.644   1.910   0.274
  291DIO     C416245   9.709   1.979   0.161
  291DIO     C516246   9.853   1.992   0.154
  291DIO     F216247   9.909   2.060   0.052
  291DIO     C616248   9.937   1.939   0.259
  291DIO     F316249  10.071   1.951   0.252
  291DIO     C716250   9.497   1.895   0.281
  291DIO     C816251   9.420   1.842   0.167
  291DIO     C916252   9.275   1.828   0.173
  291DIO    C1016253   9.203   1.876   0.289
  291DIO    C1116254   9.275   1.922   0.406
  291DIO    C1216255   9.419   1.934   0.401
  291DIO     F416256   9.484   1.982   0.508
  291DIO     O116257   9.071   1.838   0.298
  291DIO    C1316258   8.976   1.923   0.356
  291DIO     O216259   8.975   2.047   0.379
  291DIO    C1416260   8.847   1.857   0.378
  291DIO    C1516261   8.781   1.778   0.271
  291DIO     F516262   8.843   1.757   0.154
  291DIO    C1616263   8.650   1.718   0.289
  291DIO    C1716264   8.574   1.739   0.411
  291DIO    C1816265   8.643   1.801   0.524
  291DIO    C1916266   8.775   1.860   0.507
  291DIO     F616267   8.837   1.904   0.618
  291DIO    C2016268   8.433   1.686   0.427
  291DIO     O316269   8.364   1.671   0.303
  291DIO    C2116270   8.320   1.795   0.248
  291DIO    C2216271   8.231   1.870   0.347
  291DIO    C2316272   8.312   1.885   0.476
  291DIO     O416273   8.356   1.758   0.524
  291DIO    C2416274   8.098   1.796   0.377
  291DIO    C2516275   8.008   1.771   0.256
  291DIO    C2616276   7.969   1.897   0.180
  291DIO     H116277   9.690   1.807   0.467
  291DIO     H216278   9.649   2.028   0.086
  291DIO     H316279   9.472   1.807   0.078
  291DIO     H416280   9.220   1.781   0.093
  291DIO     H516281   9.221   1.953   0.494
  291DIO     H616282   8.612   1.654   0.210
  291DIO     H716283   8.600   1.800   0.623
  291DIO     H816284   8.443   1.585   0.467
  291DIO     H916285   8.407   1.856   0.221
  291DIO    H1016286   8.267   1.774   0.155
  291DIO    H1116287   8.209   1.969   0.308
  291DIO    H1216288   8.251   1.930   0.555
  291DIO    H1316289   8.398   1.951   0.461
  291DIO    H1416290   8.118   1.699   0.425
  291DIO    H1516291   8.042   1.855   0.450
  291DIO    H1616292   8.055   1.700   0.187
  291DIO    H1716293   7.916   1.722   0.291
  291DIO    H1816294   7.925   1.972   0.248
  291DIO    H1916295   8.056   1.942   0.131
  291DIO    H2016296   7.896   1.874   0.103
  292DIO     F116297   2.680   2.753   2.803
  292DIO     C116298   2.603   2.675   2.881
  292DIO     C216299   2.458   2.692   2.877
  292DIO     C316300   2.370   2.610   2.962
  292DIO     C416301   2.435   2.510   3.050
  292DIO     C516302   2.579   2.495   3.052
  292DIO     F216303   2.635   2.400   3.130
  292DIO     C616304   2.663   2.577   2.968
  292DIO     F316305   2.797   2.563   2.972
  292DIO     C716306   2.223   2.626   2.960
  292DIO     C816307   2.146   2.643   3.085
  292DIO     C916308   2.001   2.658   3.084
  292DIO    C1016309   1.929   2.646   2.958
  292DIO    C1116310   2.001   2.637   2.833
  292DIO    C1216311   2.145   2.625   2.835
  292DIO     F416312   2.210   2.611   2.717
  292DIO     O116313   1.797   2.685   2.961
  292DIO    C1316314   1.702   2.622   2.881
  292DIO     O216315   1.701   2.511   2.821
  292DIO    C1416316   1.573   2.691   2.880
  292DIO    C1516317   1.507   2.735   3.005
  292DIO     F516318   1.569   2.719   3.123
  292DIO    C1616319   1.376   2.798   3.006
  292DIO    C1716320   1.300   2.814   2.883
  292DIO    C1816321   1.369   2.788   2.757
  292DIO    C1916322   1.501   2.726   2.755
  292DIO     F616323   1.563   2.718   2.636
  292DIO    C2016324   1.159   2.869   2.884
  292DIO     O316325   1.090   2.846   3.007
  292DIO    C2116326   1.046   2.712   3.021
  292DIO    C2216327   0.957   2.670   2.905
  292DIO    C2316328   1.038   2.694   2.777
  292DIO     O416329   1.082   2.829   2.770
  292DIO    C2416330   0.824   2.749   2.899
  292DIO    C2516331   0.734   2.737   3.021
  292DIO    C2616332   0.695   2.594   3.056
  292DIO     H116333   2.416   2.765   2.810
  292DIO     H216334   2.375   2.440   3.107
  292DIO     H316335   2.198   2.649   3.180
  292DIO     H416336   1.946   2.679   3.174
  292DIO     H516337   1.947   2.634   2.740
  292DIO     H616338   1.338   2.835   3.100
  292DIO     H716339   1.326   2.819   2.662
  292DIO     H816340   1.169   2.978   2.876
  292DIO     H916341   1.133   2.645   3.029
  292DIO    H1016342   0.993   2.704   3.117
  292DIO    H1116343   0.935   2.563   2.912
  292DIO    H1216344   0.977   2.674   2.689
  292DIO    H1316345   1.124   2.626   2.772
  292DIO    H1416346   0.844   2.855   2.882
  292DIO    H1516347   0.768   2.714   2.811
  292DIO    H1616348   0.781   2.784   3.108
  292DIO    H1716349   0.642   2.794   3.002
  292DIO    H1816350   0.651   2.543   2.969
  292DIO    H1916351   0.782   2.536   3.090
  292DIO    H2016352   0.622   2.593   3.137
  293DIO     F116353   4.916   1.855   9.815
  293DIO     C116354   4.838   1.755   9.769
  293DIO     C216355   4.694   1.765   9.783
  293DIO     C316356   4.605   1.657   9.736
  293DIO     C416357   4.671   1.540   9.671
  293DIO     C516358   4.815   1.533   9.659
  293DIO     F216359   4.871   1.427   9.596
  293DIO     C616360   4.899   1.640   9.707
  293DIO     F316361   5.033   1.632   9.695
  293DIO     C716362   4.459   1.664   9.750
  293DIO     C816363   4.382   1.552   9.809
  293DIO     C916364   4.237   1.559   9.822
  293DIO    C1016365   4.165   1.673   9.769
  293DIO    C1116366   4.237   1.788   9.717
  293DIO    C1216367   4.381   1.782   9.706
  293DIO     F416368   4.446   1.887   9.653
  293DIO     O116369   4.032   1.684   9.806
  293DIO    C1316370   3.938   1.737   9.719
  293DIO     O216371   3.937   1.755   9.594
  293DIO    C1416372   3.809   1.762   9.784
  293DIO    C1516373   3.742   1.660   9.867
  293DIO     F516374   3.805   1.543   9.894
  293DIO    C1616375   3.612   1.680   9.927
  293DIO    C1716376   3.536   1.801   9.900
  293DIO    C1816377   3.605   1.911   9.832
  293DIO    C1916378   3.736   1.891   9.774
  293DIO     F616379   3.799   2.000   9.726
  293DIO    C2016380   3.395   1.819   9.952
  293DIO     O316381   3.325   1.696   9.973
  293DIO    C2116382   3.282   1.636   9.852
  293DIO    C2216383   3.193   1.731   9.773
  293DIO    C2316384   3.274   1.859   9.751
  293DIO     O416385   3.318   1.913   9.876
  293DIO    C2416386   3.060   1.764   9.844
  293DIO    C2516387   2.969   1.645   9.875
  293DIO    C2616388   2.931   1.563   9.752
  293DIO     H116389   4.652   1.853   9.829
  293DIO     H216390   4.610   1.462   9.626
  293DIO     H316391   4.433   1.465   9.847
  293DIO     H416392   4.182   1.481   9.873
  293DIO     H516393   4.183   1.874   9.682
  293DIO     H616394   3.574   1.604   9.994
  293DIO     H716395   3.562   2.010   9.829
  293DIO     H816396   3.405   1.864  10.052
  293DIO     H916397   3.368   1.606   9.792
  293DIO    H1016398   3.229   1.544   9.877
  293DIO    H1116399   3.170   1.688   9.675
  293DIO    H1216400   3.213   1.936   9.702
  293DIO    H1316401   3.360   1.841   9.686
  293DIO    H1416402   3.080   1.816   9.939
  293DIO    H1516403   3.004   1.835   9.782
  293DIO    H1616404   3.017   1.579   9.949
  293DIO    H1716405   2.878   1.682   9.922
  293DIO    H1816406   2.887   1.627   9.675
  293DIO    H1916407   3.018   1.512   9.710
  293DIO    H2016408   2.857   1.487   9.779
  294DIO     F116409   6.006   3.548   4.188
  294DIO     C116410   5.928   3.565   4.296
  294DIO     C216411   5.784   3.571   4.281
  294DIO     C316412   5.696   3.592   4.397
  294DIO     C416413   5.761   3.603   4.530
  294DIO     C516414   5.905   3.596   4.543
  294DIO     F216415   5.961   3.602   4.665
  294DIO     C616416   5.989   3.577   4.427
  294DIO     F316417   6.123   3.572   4.440
  294DIO     C716418   5.549   3.599   4.383
  294DIO     C816419   5.472   3.710   4.444
  294DIO     C916420   5.327   3.718   4.430
  294DIO    C1016421   5.255   3.610   4.365
  294DIO    C1116422   5.327   3.504   4.298
  294DIO    C1216423   5.471   3.498   4.310
  294DIO     F416424   5.536   3.395   4.251
  294DIO     O116425   5.123   3.635   4.335
  294DIO    C1316426   5.028   3.533   4.339
  294DIO     O216427   5.027   3.419   4.393
  294DIO    C1416428   4.899   3.573   4.282
  294DIO    C1516429   4.833   3.700   4.322
  294DIO     F516430   4.895   3.786   4.404
  294DIO    C1616431   4.702   3.738   4.272
  294DIO    C1716432   4.626   3.649   4.185
  294DIO    C1816433   4.695   3.532   4.132
  294DIO    C1916434   4.826   3.494   4.181
  294DIO     F616435   4.889   3.393   4.116
  294DIO    C2016436   4.485   3.682   4.142
  294DIO     O316437   4.416   3.768   4.233
  294DIO    C2116438   4.372   3.700   4.350
  294DIO    C2216439   4.283   3.581   4.314
  294DIO    C2316440   4.364   3.493   4.219
  294DIO     O416441   4.408   3.567   4.106
  294DIO    C2416442   4.150   3.623   4.247
  294DIO    C2516443   4.060   3.714   4.330
  294DIO    C2616444   4.021   3.657   4.466
  294DIO     H116445   5.742   3.561   4.181
  294DIO     H216446   5.700   3.608   4.620
  294DIO     H316447   5.524   3.791   4.495
  294DIO     H416448   5.272   3.803   4.467
  294DIO     H516449   5.273   3.427   4.245
  294DIO     H616450   4.664   3.836   4.298
  294DIO     H716451   4.652   3.474   4.051
  294DIO     H816452   4.495   3.740   4.050
  294DIO     H916453   4.459   3.667   4.408
  294DIO    H1016454   4.319   3.772   4.413
  294DIO    H1116455   4.261   3.524   4.405
  294DIO    H1216456   4.303   3.409   4.183
  294DIO    H1316457   4.450   3.448   4.271
  294DIO    H1416458   4.170   3.673   4.152
  294DIO    H1516459   4.094   3.532   4.223
  294DIO    H1616460   4.107   3.812   4.344
  294DIO    H1716461   3.968   3.733   4.273
  294DIO    H1816462   3.977   3.557   4.455
  294DIO    H1916463   4.108   3.650   4.532
  294DIO    H2016464   3.948   3.722   4.514
  295DIO     F116465   2.130   1.211   5.689
  295DIO     C116466   2.053   1.101   5.684
  295DIO     C216467   1.908   1.115   5.693
  295DIO     C316468   1.820   0.997   5.690
  295DIO     C416469   1.885   0.865   5.674
  295DIO     C516470   2.029   0.854   5.665
  295DIO     F216471   2.085   0.732   5.647
  295DIO     C616472   2.113   0.971   5.669
  295DIO     F316473   2.247   0.959   5.662
  295DIO     C716474   1.673   1.009   5.700
  295DIO     C816475   1.596   0.928   5.797
  295DIO     C916476   1.451   0.939   5.807
  295DIO    C1016477   1.379   1.024   5.714
  295DIO    C1116478   1.451   1.111   5.623
  295DIO    C1216479   1.595   1.102   5.615
  295DIO     F416480   1.660   1.179   5.526
  295DIO     O116481   1.247   1.049   5.745
  295DIO    C1316482   1.152   1.066   5.644
  295DIO     O216483   1.151   1.035   5.522
  295DIO    C1416484   1.023   1.113   5.695
  295DIO    C1516485   0.957   1.049   5.811
  295DIO     F516486   1.019   0.951   5.879
  295DIO    C1616487   0.826   1.090   5.859
  295DIO    C1716488   0.750   1.193   5.788
  295DIO    C1816489   0.819   1.269   5.684
  295DIO    C1916490   0.951   1.229   5.638
  295DIO     F616491   1.013   1.312   5.552
  295DIO    C2016492   0.609   1.229   5.829
  295DIO     O316493   0.540   1.123   5.895
  295DIO    C2116494   0.496   1.022   5.805
  295DIO    C2216495   0.407   1.080   5.696
  295DIO    C2316496   0.488   1.191   5.628
  295DIO     O416497   0.532   1.287   5.724
  295DIO    C2416498   0.274   1.138   5.750
  295DIO    C2516499   0.184   1.038   5.824
  295DIO    C2616500   0.145   0.917   5.741
  295DIO     H116501   1.866   1.215   5.703
  295DIO     H216502   1.825   0.776   5.662
  295DIO     H316503   1.648   0.862   5.866
  295DIO     H416504   1.396   0.886   5.883
  295DIO     H516505   1.397   1.179   5.559
  295DIO     H616506   0.788   1.046   5.950
  295DIO     H716507   0.776   1.360   5.644
  295DIO     H816508   0.619   1.308   5.905
  295DIO     H916509   0.583   0.971   5.761
  295DIO    H1016510   0.443   0.946   5.863
  295DIO    H1116511   0.385   1.003   5.622
  295DIO    H1216512   0.427   1.243   5.554
  295DIO    H1316513   0.574   1.149   5.575
  295DIO    H1416514   0.294   1.222   5.818
  295DIO    H1516515   0.218   1.179   5.666
  295DIO    H1616516   0.231   1.005   5.917
  295DIO    H1716517   0.092   1.091   5.853
  295DIO    H1816518   0.101   0.947   5.645
  295DIO    H1916519   0.232   0.853   5.721
  295DIO    H2016520   0.072   0.857   5.794
  296DIO     F116521   9.073   6.786   5.271
  296DIO     C116522   8.996   6.681   5.240
  296DIO     C216523   8.852   6.692   5.253
  296DIO     C316524   8.763   6.578   5.222
  296DIO     C416525   8.828   6.453   5.176
  296DIO     C516526   8.973   6.444   5.165
  296DIO     F216527   9.028   6.330   5.119
  296DIO     C616528   9.056   6.557   5.196
  296DIO     F316529   9.190   6.547   5.186
  296DIO     C716530   8.616   6.587   5.235
  296DIO     C816531   8.539   6.486   5.310
  296DIO     C916532   8.395   6.494   5.322
  296DIO    C1016533   8.322   6.599   5.252
  296DIO    C1116534   8.395   6.704   5.184
  296DIO    C1216535   8.539   6.697   5.174
  296DIO     F416536   8.604   6.793   5.105
  296DIO     O116537   8.190   6.615   5.288
  296DIO    C1316538   8.095   6.655   5.193
  296DIO     O216539   8.094   6.654   5.068
  296DIO    C1416540   7.966   6.689   5.254
  296DIO    C1516541   7.900   6.601   5.352
  296DIO     F516542   7.963   6.489   5.396
  296DIO    C1616543   7.769   6.629   5.408
  296DIO    C1716544   7.693   6.746   5.363
  296DIO    C1816545   7.762   6.844   5.280
  296DIO    C1916546   7.894   6.815   5.225
  296DIO     F616547   7.956   6.916   5.161
  296DIO    C2016548   7.553   6.771   5.412
  296DIO     O316549   7.483   6.652   5.451
  296DIO    C2116550   7.439   6.575   5.340
  296DIO    C2216551   7.350   6.657   5.247
  296DIO    C2316552   7.431   6.781   5.207
  296DIO     O416553   7.475   6.852   5.322
  296DIO    C2416554   7.218   6.700   5.314
  296DIO    C2516555   7.127   6.587   5.362
  296DIO    C2616556   7.088   6.488   5.253
  296DIO     H116557   8.809   6.786   5.285
  296DIO     H216558   8.768   6.369   5.143
  296DIO     H316559   8.591   6.406   5.361
  296DIO     H416560   8.340   6.425   5.384
  296DIO     H516561   8.340   6.785   5.136
  296DIO     H616562   7.731   6.565   5.486
  296DIO     H716563   7.719   6.941   5.261
  296DIO     H816564   7.562   6.830   5.503
  296DIO     H916565   7.526   6.536   5.285
  296DIO    H1016566   7.386   6.487   5.379
  296DIO    H1116567   7.328   6.599   5.157
  296DIO    H1216568   7.370   6.849   5.147
  296DIO    H1316569   7.517   6.753   5.145
  296DIO    H1416570   7.237   6.766   5.399
  296DIO    H1516571   7.161   6.761   5.241
  296DIO    H1616572   7.174   6.533   5.445
  296DIO    H1716573   7.035   6.631   5.403
  296DIO    H1816574   7.045   6.539   5.167
  296DIO    H1916575   7.175   6.431   5.218
  296DIO    H2016576   7.015   6.417   5.291
  297DIO     F116577   2.527   1.510   6.479
  297DIO     C116578   2.449   1.432   6.556
  297DIO     C216579   2.305   1.448   6.552
  297DIO     C316580   2.216   1.366   6.637
  297DIO     C416581   2.282   1.265   6.724
  297DIO     C516582   2.426   1.251   6.726
  297DIO     F216583   2.482   1.155   6.804
  297DIO     C616584   2.510   1.333   6.643
  297DIO     F316585   2.644   1.319   6.647
  297DIO     C716586   2.070   1.381   6.635
  297DIO     C816587   1.993   1.398   6.761
  297DIO     C916588   1.848   1.413   6.759
  297DIO    C1016589   1.776   1.402   6.634
  297DIO    C1116590   1.848   1.394   6.508
  297DIO    C1216591   1.992   1.381   6.510
  297DIO     F416592   2.057   1.368   6.392
  297DIO     O116593   1.643   1.441   6.636
  297DIO    C1316594   1.549   1.378   6.556
  297DIO     O216595   1.548   1.267   6.496
  297DIO    C1416596   1.420   1.448   6.555
  297DIO    C1516597   1.353   1.490   6.681
  297DIO     F516598   1.416   1.474   6.799
  297DIO    C1616599   1.223   1.553   6.682
  297DIO    C1716600   1.147   1.570   6.559
  297DIO    C1816601   1.216   1.545   6.433
  297DIO    C1916602   1.347   1.484   6.431
  297DIO     F616603   1.410   1.476   6.312
  297DIO    C2016604   1.006   1.625   6.561
  297DIO     O316605   0.936   1.602   6.683
  297DIO    C2116606   0.893   1.467   6.697
  297DIO    C2216607   0.804   1.426   6.580
  297DIO    C2316608   0.885   1.451   6.453
  297DIO     O416609   0.929   1.586   6.446
  297DIO    C2416610   0.671   1.505   6.575
  297DIO    C2516611   0.580   1.492   6.697
  297DIO    C2616612   0.542   1.349   6.731
  297DIO     H116613   2.263   1.522   6.486
  297DIO     H216614   2.221   1.195   6.781
  297DIO     H316615   2.044   1.404   6.856
  297DIO     H416616   1.793   1.433   6.850
  297DIO     H516617   1.794   1.391   6.415
  297DIO     H616618   1.185   1.590   6.777
  297DIO     H716619   1.173   1.577   6.339
  297DIO     H816620   1.016   1.734   6.553
  297DIO     H916621   0.979   1.401   6.705
  297DIO    H1016622   0.840   1.459   6.793
  297DIO    H1116623   0.781   1.319   6.587
  297DIO    H1216624   0.824   1.432   6.364
  297DIO    H1316625   0.971   1.383   6.447
  297DIO    H1416626   0.691   1.612   6.558
  297DIO    H1516627   0.615   1.471   6.487
  297DIO    H1616628   0.628   1.539   6.785
  297DIO    H1716629   0.489   1.549   6.678
  297DIO    H1816630   0.498   1.299   6.644
  297DIO    H1916631   0.629   1.291   6.764
  297DIO    H2016632   0.468   1.348   6.812
  298DIO     F116633   3.292   8.346   8.434
  298DIO     C116634   3.215   8.422   8.513
  298DIO     C216635   3.071   8.418   8.497
  298DIO     C316636   2.982   8.503   8.580
  298DIO     C416637   3.047   8.588   8.681
  298DIO     C516638   3.192   8.591   8.696
  298DIO     F216639   3.247   8.667   8.792
  298DIO     C616640   3.275   8.508   8.613
  298DIO     F316641   3.409   8.511   8.626
  298DIO     C716642   2.836   8.501   8.564
  298DIO     C816643   2.758   8.626   8.549
  298DIO     C916644   2.614   8.625   8.534
  298DIO    C1016645   2.541   8.499   8.543
  298DIO    C1116646   2.614   8.374   8.550
  298DIO    C1216647   2.758   8.375   8.563
  298DIO     F416648   2.823   8.258   8.575
  298DIO     O116649   2.409   8.502   8.504
  298DIO    C1316650   2.314   8.421   8.567
  298DIO     O216651   2.314   8.360   8.677
  298DIO    C1416652   2.185   8.421   8.497
  298DIO    C1516653   2.119   8.547   8.456
  298DIO     F516654   2.182   8.665   8.473
  298DIO    C1616655   1.988   8.550   8.393
  298DIO    C1716656   1.912   8.426   8.374
  298DIO    C1816657   1.981   8.300   8.399
  298DIO    C1916658   2.113   8.298   8.460
  298DIO     F616659   2.175   8.178   8.466
  298DIO    C2016660   1.772   8.428   8.320
  298DIO     O316661   1.702   8.551   8.344
  298DIO    C2116662   1.658   8.563   8.479
  298DIO    C2216663   1.569   8.446   8.519
  298DIO    C2316664   1.650   8.319   8.493
  298DIO     O416665   1.694   8.314   8.357
  298DIO    C2416666   1.437   8.441   8.440
  298DIO    C2516667   1.346   8.564   8.454
  298DIO    C2616668   1.308   8.596   8.598
  298DIO     H116669   3.028   8.352   8.422
  298DIO     H216670   2.987   8.645   8.752
  298DIO     H316671   2.810   8.721   8.544
  298DIO     H416672   2.559   8.716   8.514
  298DIO     H516673   2.559   8.280   8.552
  298DIO     H616674   1.950   8.644   8.357
  298DIO     H716675   1.938   8.206   8.366
  298DIO     H816676   1.781   8.422   8.211
  298DIO     H916677   1.745   8.570   8.545
  298DIO    H1016678   1.606   8.659   8.488
  298DIO    H1116679   1.547   8.452   8.626
  298DIO    H1216680   1.589   8.230   8.511
  298DIO    H1316681   1.736   8.313   8.560
  298DIO    H1416682   1.457   8.426   8.333
  298DIO    H1516683   1.380   8.353   8.473
  298DIO    H1616684   1.393   8.652   8.408
  298DIO    H1716685   1.254   8.546   8.397
  298DIO    H1816686   1.264   8.509   8.647
  298DIO    H1916687   1.394   8.629   8.656
  298DIO    H2016688   1.234   8.677   8.600
  299DIO     F116689   2.991   6.541   6.170
  299DIO     C116690   2.913   6.576   6.066
  299DIO     C216691   2.769   6.563   6.077
  299DIO     C316692   2.680   6.599   5.964
  299DIO     C416693   2.746   6.650   5.841
  299DIO     C516694   2.890   6.661   5.833
  299DIO     F216695   2.945   6.712   5.721
  299DIO     C616696   2.974   6.626   5.945
  299DIO     F316697   3.107   6.636   5.935
  299DIO     C716698   2.534   6.585   5.973
  299DIO     C816699   2.457   6.514   5.869
  299DIO     C916700   2.312   6.502   5.877
  299DIO    C1016701   2.239   6.568   5.984
  299DIO    C1116702   2.312   6.632   6.092
  299DIO    C1216703   2.456   6.642   6.085
  299DIO     F416704   2.521   6.707   6.184
  299DIO     O116705   2.107   6.532   5.999
  299DIO    C1316706   2.013   6.624   6.043
  299DIO     O216707   2.012   6.750   6.047
  299DIO    C1416708   1.883   6.562   6.075
  299DIO    C1516709   1.817   6.468   5.982
  299DIO     F516710   1.880   6.429   5.869
  299DIO    C1616711   1.686   6.411   6.008
  299DIO    C1716712   1.611   6.451   6.126
  299DIO    C1816713   1.679   6.531   6.228
  299DIO    C1916714   1.811   6.586   6.201
  299DIO     F616715   1.873   6.646   6.305
  299DIO    C2016716   1.470   6.402   6.150
  299DIO     O316717   1.400   6.367   6.030
  299DIO    C2116718   1.356   6.481   5.957
  299DIO    C2216719   1.268   6.570   6.043
  299DIO    C2316720   1.348   6.605   6.168
  299DIO     O416721   1.393   6.488   6.234
  299DIO    C2416722   1.135   6.502   6.083
  299DIO    C2516723   1.044   6.459   5.968
  299DIO    C2616724   1.006   6.572   5.873
  299DIO     H116725   2.726   6.527   6.170
  299DIO     H216726   2.685   6.686   5.759
  299DIO     H316727   2.508   6.466   5.787
  299DIO     H416728   2.257   6.443   5.805
  299DIO     H516729   2.257   6.676   6.175
  299DIO     H616730   1.648   6.336   5.941
  299DIO     H716731   1.636   6.545   6.326
  299DIO     H816732   1.480   6.307   6.205
  299DIO     H916733   1.443   6.537   5.920
  299DIO    H1016734   1.304   6.446   5.868
  299DIO    H1116735   1.245   6.663   5.988
  299DIO    H1216736   1.287   6.663   6.238
  299DIO    H1316737   1.434   6.668   6.142
  299DIO    H1416738   1.155   6.414   6.146
  299DIO    H1516739   1.078   6.572   6.146
  299DIO    H1616740   1.091   6.378   5.911
  299DIO    H1716741   0.952   6.416   6.010
  299DIO    H1816742   0.962   6.656   5.928
  299DIO    H1916743   1.092   6.608   5.817
  299DIO    H2016744   0.932   6.536   5.801
  300DIO     F116745   9.508   5.986   4.359
  300DIO     C116746   9.430   6.046   4.451
  300DIO     C216747   9.286   6.045   4.434
  300DIO     C316748   9.197   6.113   4.532
  300DIO     C416749   9.263   6.178   4.648
  300DIO     C516750   9.407   6.177   4.662
  300DIO     F216751   9.463   6.234   4.771
  300DIO     C616752   9.491   6.111   4.565
  300DIO     F316753   9.625   6.112   4.579
  300DIO     C716754   9.051   6.114   4.516
  300DIO     C816755   8.974   6.240   4.524
  300DIO     C916756   8.829   6.241   4.509
  300DIO    C1016757   8.757   6.116   4.495
  300DIO    C1116758   8.829   5.991   4.479
  300DIO    C1216759   8.973   5.991   4.491
  300DIO     F416760   9.038   5.873   4.481
  300DIO     O116761   8.624   6.127   4.457
  300DIO    C1316762   8.530   6.035   4.503
  300DIO     O216763   8.529   5.954   4.600
  300DIO    C1416764   8.401   6.048   4.435
  300DIO    C1516765   8.334   6.180   4.418
  300DIO     F516766   8.397   6.293   4.457
  300DIO    C1616767   8.204   6.194   4.357
  300DIO    C1716768   8.128   6.076   4.315
  300DIO    C1816769   8.197   5.948   4.315
  300DIO    C1916770   8.328   5.934   4.375
  300DIO     F616771   8.391   5.815   4.359
  300DIO    C2016772   7.987   6.089   4.262
  300DIO     O316773   7.917   6.204   4.309
  300DIO    C2116774   7.874   6.191   4.444
  300DIO    C2216775   7.785   6.068   4.461
  300DIO    C2316776   7.866   5.949   4.411
  300DIO     O416777   7.910   5.969   4.278
  300DIO    C2416778   7.652   6.079   4.382
  300DIO    C2516779   7.561   6.196   4.419
  300DIO    C2616780   7.523   6.201   4.567
  300DIO     H116781   9.244   5.995   4.348
  300DIO     H216782   9.202   6.220   4.727
  300DIO     H316783   9.025   6.334   4.537
  300DIO     H416784   8.774   6.334   4.507
  300DIO     H516785   8.775   5.899   4.462
  300DIO     H616786   8.166   6.294   4.339
  300DIO     H716787   8.154   5.861   4.266
  300DIO     H816788   7.997   6.103   4.154
  300DIO     H916789   7.960   6.185   4.511
  300DIO    H1016790   7.821   6.283   4.471
  300DIO    H1116791   7.762   6.054   4.567
  300DIO    H1216792   7.805   5.858   4.413
  300DIO    H1316793   7.952   5.930   4.477
  300DIO    H1416794   7.672   6.084   4.275
  300DIO    H1516795   7.596   5.986   4.398
  300DIO    H1616796   7.609   6.291   4.391
  300DIO    H1716797   7.470   6.189   4.360
  300DIO    H1816798   7.479   6.106   4.599
  300DIO    H1916799   7.610   6.222   4.630
  300DIO    H2016800   7.449   6.280   4.584
  301DIO     F116801   2.628   0.196   7.007
  301DIO     C116802   2.550   0.156   7.110
  301DIO     C216803   2.406   0.170   7.099
  301DIO     C316804   2.317   0.129   7.211
  301DIO     C416805   2.383   0.073   7.331
  301DIO     C516806   2.527   0.060   7.339
  301DIO     F216807   2.583   0.005   7.448
  301DIO     C616808   2.611   0.101   7.229
  301DIO     F316809   2.745   0.091   7.238
  301DIO     C716810   2.171   0.143   7.202
  301DIO     C816811   2.094   0.209   7.310
  301DIO     C916812   1.949   0.222   7.302
  301DIO    C1016813   1.877   0.161   7.193
  301DIO    C1116814   1.949   0.102   7.081
  301DIO    C1216815   2.093   0.092   7.088
  301DIO     F416816   2.158   0.032   6.986
  301DIO     O116817   1.744   0.198   7.179
  301DIO    C1316818   1.650   0.107   7.131
  301DIO     O216819   1.649  -0.018   7.121
  301DIO    C1416820   1.521   0.171   7.102
  301DIO    C1516821   1.454   0.261   7.199
  301DIO     F516822   1.517   0.294   7.314
  301DIO    C1616823   1.324   0.319   7.176
  301DIO    C1716824   1.248   0.284   7.056
  301DIO    C1816825   1.317   0.210   6.951
  301DIO    C1916826   1.448   0.153   6.974
  301DIO     F616827   1.511   0.098   6.868
  301DIO    C2016828   1.107   0.335   7.035
  301DIO     O316829   1.037   0.364   7.157
  301DIO    C2116830   0.994   0.246   7.224
  301DIO    C2216831   0.905   0.161   7.134
  301DIO    C2316832   0.986   0.132   7.007
  301DIO     O416833   1.030   0.253   6.946
  301DIO    C2416834   0.772   0.231   7.096
  301DIO    C2516835   0.681   0.269   7.214
  301DIO    C2616836   0.643   0.152   7.303
  301DIO     H116837   2.364   0.210   7.008
  301DIO     H216838   2.322   0.032   7.411
  301DIO     H316839   2.145   0.253   7.394
  301DIO     H416840   1.894   0.277   7.377
  301DIO     H516841   1.895   0.062   6.997
  301DIO     H616842   1.286   0.391   7.247
  301DIO     H716843   1.274   0.200   6.852
  301DIO     H816844   1.117   0.432   6.984
  301DIO     H916845   1.080   0.189   7.258
  301DIO    H1016846   0.941   0.277   7.315
  301DIO    H1116847   0.882   0.066   7.184
  301DIO    H1216848   0.925   0.078   6.934
  301DIO    H1316849   1.072   0.068   7.030
  301DIO    H1416850   0.792   0.322   7.038
  301DIO    H1516851   0.716   0.164   7.030
  301DIO    H1616852   0.729   0.347   7.275
  301DIO    H1716853   0.590   0.314   7.173
  301DIO    H1816854   0.599   0.071   7.244
  301DIO    H1916855   0.730   0.113   7.357
  301DIO    H2016856   0.569   0.184   7.377
  302DIO     F116857   9.417   5.627   7.747
  302DIO     C116858   9.339   5.530   7.696
  302DIO     C216859   9.195   5.539   7.710
  302DIO     C316860   9.106   5.433   7.657
  302DIO     C416861   9.172   5.320   7.587
  302DIO     C516862   9.316   5.313   7.574
  302DIO     F216863   9.372   5.211   7.505
  302DIO     C616864   9.400   5.418   7.627
  302DIO     F316865   9.534   5.410   7.615
  302DIO     C716866   8.960   5.439   7.671
  302DIO     C816867   8.883   5.325   7.724
  302DIO     C916868   8.738   5.331   7.738
  302DIO    C1016869   8.666   5.447   7.691
  302DIO    C1116870   8.738   5.565   7.645
  302DIO    C1216871   8.882   5.559   7.634
  302DIO     F416872   8.947   5.667   7.586
  302DIO     O116873   8.533   5.456   7.729
  302DIO    C1316874   8.439   5.514   7.644
  302DIO     O216875   8.438   5.539   7.521
  302DIO    C1416876   8.310   5.536   7.711
  302DIO    C1516877   8.244   5.429   7.789
  302DIO     F516878   8.306   5.311   7.809
  302DIO    C1616879   8.113   5.446   7.849
  302DIO    C1716880   8.037   5.569   7.829
  302DIO    C1816881   8.106   5.681   7.767
  302DIO    C1916882   8.237   5.665   7.708
  302DIO     F616883   8.300   5.777   7.665
  302DIO    C2016884   7.896   5.584   7.882
  302DIO     O316885   7.827   5.459   7.896
  302DIO    C2116886   7.783   5.406   7.772
  302DIO    C2216887   7.694   5.506   7.698
  302DIO    C2316888   7.775   5.635   7.683
  302DIO     O416889   7.819   5.681   7.811
  302DIO    C2416890   7.561   5.534   7.771
  302DIO    C2516891   7.471   5.413   7.796
  302DIO    C2616892   7.432   5.339   7.669
  302DIO     H116893   9.153   5.624   7.761
  302DIO     H216894   9.111   5.245   7.537
  302DIO     H316895   8.934   5.236   7.758
  302DIO     H416896   8.683   5.250   7.785
  302DIO     H516897   8.684   5.653   7.615
  302DIO     H616898   8.075   5.367   7.913
  302DIO     H716899   8.063   5.781   7.769
  302DIO     H816900   7.906   5.623   7.984
  302DIO     H916901   7.870   5.379   7.710
  302DIO    H1016902   7.730   5.313   7.792
  302DIO    H1116903   7.671   5.467   7.598
  302DIO    H1216904   7.714   5.714   7.639
  302DIO    H1316905   7.861   5.620   7.617
  302DIO    H1416906   7.581   5.582   7.868
  302DIO    H1516907   7.505   5.608   7.713
  302DIO    H1616908   7.518   5.344   7.866
  302DIO    H1716909   7.379   5.448   7.845
  302DIO    H1816910   7.388   5.407   7.595
  302DIO    H1916911   7.519   5.289   7.623
  302DIO    H2016912   7.358   5.261   7.692
  303DIO     F116913   3.341   7.624   0.532
  303DIO     C116914   3.263   7.636   0.641
  303DIO     C216915   3.119   7.643   0.626
  303DIO     C316916   3.030   7.657   0.743
  303DIO     C416917   3.096   7.662   0.876
  303DIO     C516918   3.240   7.655   0.889
  303DIO     F216919   3.295   7.655   1.012
  303DIO     C616920   3.324   7.641   0.772
  303DIO     F316921   3.457   7.635   0.785
  303DIO     C716922   2.884   7.666   0.730
  303DIO     C816923   2.807   7.774   0.796
  303DIO     C916924   2.662   7.782   0.783
  303DIO    C1016925   2.589   7.677   0.713
  303DIO    C1116926   2.662   7.574   0.641
  303DIO    C1216927   2.806   7.568   0.651
  303DIO     F416928   2.871   7.468   0.588
  303DIO     O116929   2.457   7.704   0.684
  303DIO    C1316930   2.363   7.602   0.683
  303DIO     O216931   2.362   7.485   0.731
  303DIO    C1416932   2.234   7.645   0.628
  303DIO    C1516933   2.167   7.769   0.673
  303DIO     F516934   2.230   7.851   0.760
  303DIO    C1616935   2.036   7.810   0.626
  303DIO    C1716936   1.961   7.725   0.535
  303DIO    C1816937   2.029   7.610   0.476
  303DIO    C1916938   2.161   7.571   0.522
  303DIO     F616939   2.224   7.473   0.453
  303DIO    C2016940   1.820   7.760   0.493
  303DIO     O316941   1.750   7.841   0.588
  303DIO    C2116942   1.707   7.768   0.702
  303DIO    C2216943   1.618   7.651   0.660
  303DIO    C2316944   1.698   7.567   0.561
  303DIO     O416945   1.743   7.647   0.452
  303DIO    C2416946   1.485   7.696   0.595
  303DIO    C2516947   1.394   7.783   0.682
  303DIO    C2616948   1.356   7.719   0.815
  303DIO     H116949   3.076   7.637   0.526
  303DIO     H216950   3.035   7.663   0.966
  303DIO     H316951   2.858   7.851   0.850
  303DIO     H416952   2.607   7.865   0.824
  303DIO     H516953   2.607   7.500   0.584
  303DIO     H616954   1.998   7.907   0.656
  303DIO     H716955   1.987   7.557   0.392
  303DIO     H816956   1.830   7.823   0.403
  303DIO     H916957   1.793   7.732   0.758
  303DIO    H1016958   1.654   7.837   0.768
  303DIO    H1116959   1.595   7.589   0.748
  303DIO    H1216960   1.637   7.486   0.521
  303DIO    H1316961   1.785   7.520   0.610
  303DIO    H1416962   1.505   7.750   0.502
  303DIO    H1516963   1.428   7.606   0.567
  303DIO    H1616964   1.442   7.880   0.701
  303DIO    H1716965   1.302   7.804   0.626
  303DIO    H1816966   1.312   7.620   0.800
  303DIO    H1916967   1.442   7.709   0.881
  303DIO    H2016968   1.282   7.782   0.867
  304DIO     F116969   2.896   1.902   5.121
  304DIO     C116970   2.819   1.974   5.203
  304DIO     C216971   2.674   1.971   5.187
  304DIO     C316972   2.586   2.051   5.274
  304DIO     C416973   2.651   2.131   5.380
  304DIO     C516974   2.795   2.133   5.394
  304DIO     F216975   2.851   2.204   5.495
  304DIO     C616976   2.879   2.054   5.307
  304DIO     F316977   3.013   2.057   5.321
  304DIO     C716978   2.439   2.050   5.258
  304DIO     C816979   2.362   2.176   5.250
  304DIO     C916980   2.217   2.175   5.234
  304DIO    C1016981   2.145   2.049   5.237
  304DIO    C1116982   2.217   1.924   5.238
  304DIO    C1216983   2.361   1.925   5.251
  304DIO     F416984   2.426   1.807   5.257
  304DIO     O116985   2.013   2.054   5.199
  304DIO    C1316986   1.918   1.970   5.257
  304DIO     O216987   1.917   1.903   5.363
  304DIO    C1416988   1.789   1.974   5.187
  304DIO    C1516989   1.723   2.102   5.152
  304DIO     F516990   1.785   2.219   5.176
  304DIO    C1616991   1.592   2.107   5.090
  304DIO    C1716992   1.516   1.985   5.065
  304DIO    C1816993   1.585   1.858   5.083
  304DIO    C1916994   1.717   1.852   5.144
  304DIO     F616995   1.779   1.733   5.144
  304DIO    C2016996   1.375   1.990   5.010
  304DIO     O316997   1.306   2.111   5.041
  304DIO    C2116998   1.262   2.117   5.176
  304DIO    C2216999   1.173   1.997   5.210
  304DIO    C2317000   1.254   1.872   5.178
  304DIO     O417001   1.298   1.874   5.042
  304DIO    C2417002   1.040   1.997   5.131
  304DIO    C2517003   0.950   2.118   5.152
  304DIO    C2617004   0.911   2.143   5.297
  304DIO     H117005   2.632   1.909   5.109
  304DIO     H217006   2.591   2.184   5.453
  304DIO     H317007   2.414   2.271   5.249
  304DIO     H417008   2.162   2.267   5.220
  304DIO     H517009   2.163   1.830   5.235
  304DIO     H617010   1.554   2.204   5.059
  304DIO     H717011   1.542   1.766   5.045
  304DIO     H817012   1.385   1.989   4.901
  304DIO     H917013   1.349   2.120   5.243
  304DIO    H1017014   1.209   2.211   5.191
  304DIO    H1117015   1.151   1.998   5.317
  304DIO    H1217016   1.193   1.782   5.191
  304DIO    H1317017   1.340   1.862   5.245
  304DIO    H1417018   1.060   1.987   5.024
  304DIO    H1517019   0.984   1.907   5.160
  304DIO    H1617020   0.997   2.208   5.111
  304DIO    H1717021   0.858   2.103   5.093
  304DIO    H1817022   0.867   2.053   5.342
  304DIO    H1917023   0.998   2.173   5.356
  304DIO    H2017024   0.838   2.224   5.303
  305DIO     F117025   7.371   1.411   6.185
  305DIO     C117026   7.293   1.345   6.097
  305DIO     C217027   7.149   1.346   6.114
  305DIO     C317028   7.060   1.273   6.021
  305DIO     C417029   7.126   1.201   5.910
  305DIO     C517030   7.270   1.201   5.895
  305DIO     F217031   7.325   1.137   5.790
  305DIO     C617032   7.354   1.272   5.988
  305DIO     F317033   7.487   1.270   5.974
  305DIO     C717034   6.914   1.273   6.037
  305DIO     C817035   6.837   1.147   6.036
  305DIO     C917036   6.692   1.146   6.051
  305DIO    C1017037   6.619   1.272   6.058
  305DIO    C1117038   6.692   1.397   6.067
  305DIO    C1217039   6.836   1.397   6.054
  305DIO     F417040   6.901   1.516   6.057
  305DIO     O117041   6.487   1.264   6.096
  305DIO    C1317042   6.393   1.352   6.044
  305DIO     O217043   6.392   1.427   5.943
  305DIO    C1417044   6.264   1.343   6.114
  305DIO    C1517045   6.197   1.214   6.139
  305DIO     F517046   6.260   1.098   6.107
  305DIO    C1617047   6.066   1.203   6.201
  305DIO    C1717048   5.991   1.323   6.235
  305DIO    C1817049   6.059   1.451   6.226
  305DIO    C1917050   6.191   1.461   6.166
  305DIO     F617051   6.254   1.581   6.175
  305DIO    C2017052   5.850   1.314   6.289
  305DIO     O317053   5.780   1.196   6.249
  305DIO    C2117054   5.737   1.200   6.114
  305DIO    C2217055   5.648   1.322   6.089
  305DIO    C2317056   5.728   1.445   6.131
  305DIO     O417057   5.773   1.433   6.266
  305DIO    C2417058   5.515   1.317   6.168
  305DIO    C2517059   5.424   1.197   6.138
  305DIO    C2617060   5.386   1.183   5.992
  305DIO     H117061   7.106   1.402   6.197
  305DIO     H217062   7.065   1.154   5.833
  305DIO     H317063   6.888   1.052   6.029
  305DIO     H417064   6.637   1.054   6.059
  305DIO     H517065   6.637   1.490   6.077
  305DIO     H617066   6.028   1.105   6.224
  305DIO     H717067   6.017   1.541   6.271
  305DIO     H817068   5.860   1.307   6.398
  305DIO     H917069   5.823   1.202   6.047
  305DIO    H1017070   5.684   1.107   6.092
  305DIO    H1117071   5.625   1.329   5.982
  305DIO    H1217072   5.667   1.535   6.124
  305DIO    H1317073   5.815   1.459   6.064
  305DIO    H1417074   5.535   1.318   6.276
  305DIO    H1517075   5.458   1.408   6.146
  305DIO    H1617076   5.472   1.104   6.172
  305DIO    H1717077   5.332   1.208   6.198
  305DIO    H1817078   5.342   1.276   5.954
  305DIO    H1917079   5.472   1.158   5.930
  305DIO    H2017080   5.312   1.103   5.980
  306DIO     F117081   9.530   1.380   5.094
  306DIO     C117082   9.452   1.488   5.075
  306DIO     C217083   9.308   1.472   5.069
  306DIO     C317084   9.219   1.588   5.046
  306DIO     C417085   9.285   1.721   5.031
  306DIO     C517086   9.429   1.734   5.038
  306DIO     F217087   9.484   1.856   5.028
  306DIO     C617088   9.513   1.618   5.060
  306DIO     F317089   9.646   1.632   5.064
  306DIO     C717090   9.073   1.574   5.038
  306DIO     C817091   8.996   1.632   4.926
  306DIO     C917092   8.851   1.618   4.919
  306DIO    C1017093   8.778   1.556   5.028
  306DIO    C1117094   8.851   1.492   5.136
  306DIO    C1217095   8.995   1.503   5.142
  306DIO     F417096   9.060   1.447   5.246
  306DIO     O117097   8.646   1.526   5.004
  306DIO    C1317098   8.552   1.532   5.106
  306DIO     O217099   8.551   1.589   5.218
  306DIO    C1417100   8.422   1.474   5.067
  306DIO    C1517101   8.356   1.510   4.939
  306DIO     F517102   8.419   1.591   4.851
  306DIO    C1617103   8.225   1.459   4.902
  306DIO    C1717104   8.150   1.375   4.994
  306DIO    C1817105   8.218   1.325   5.112
  306DIO    C1917106   8.350   1.374   5.149
  306DIO     F617107   8.412   1.313   5.251
  306DIO    C2017108   8.009   1.331   4.962
  306DIO     O317109   7.939   1.420   4.874
  306DIO    C2117110   7.895   1.539   4.939
  306DIO    C2217111   7.807   1.506   5.058
  306DIO    C2317112   7.887   1.413   5.149
  306DIO     O417113   7.932   1.298   5.078
  306DIO    C2417114   7.674   1.438   5.018
  306DIO    C2517115   7.583   1.518   4.925
  306DIO    C2617116   7.545   1.655   4.978
  306DIO     H117117   9.265   1.374   5.082
  306DIO     H217118   9.224   1.810   5.024
  306DIO     H317119   9.047   1.681   4.844
  306DIO     H417120   8.796   1.653   4.832
  306DIO     H517121   8.796   1.441   5.214
  306DIO     H617122   8.187   1.483   4.803
  306DIO     H717123   8.175   1.245   5.172
  306DIO     H817124   8.019   1.237   4.906
  306DIO     H917125   7.982   1.598   4.970
  306DIO    H1017126   7.843   1.600   4.865
  306DIO    H1117127   7.784   1.598   5.113
  306DIO    H1217128   7.826   1.379   5.233
  306DIO    H1317129   7.973   1.466   5.192
  306DIO    H1417130   7.694   1.341   4.971
  306DIO    H1517131   7.617   1.416   5.110
  306DIO    H1617132   7.630   1.529   4.826
  306DIO    H1717133   7.491   1.460   4.908
  306DIO    H1817134   7.501   1.647   5.078
  306DIO    H1917135   7.631   1.722   4.984
  306DIO    H2017136   7.471   1.702   4.912
  307DIO     F117137   4.498   0.119   4.182
  307DIO     C117138   4.421   0.228   4.166
  307DIO     C217139   4.277   0.212   4.160
  307DIO     C317140   4.188   0.329   4.140
  307DIO     C417141   4.253   0.461   4.130
  307DIO     C517142   4.398   0.474   4.136
  307DIO     F217143   4.453   0.597   4.131
  307DIO     C617144   4.481   0.358   4.155
  307DIO     F317145   4.615   0.371   4.160
  307DIO     C717146   4.041   0.315   4.132
  307DIO     C817147   3.964   0.376   4.022
  307DIO     C917148   3.820   0.363   4.014
  307DIO    C1017149   3.747   0.297   4.121
  307DIO    C1117150   3.819   0.229   4.228
  307DIO    C1217151   3.964   0.241   4.233
  307DIO     F417152   4.028   0.182   4.336
  307DIO     O117153   3.615   0.267   4.096
  307DIO    C1317154   3.520   0.270   4.198
  307DIO     O217155   3.519   0.324   4.312
  307DIO    C1417156   3.391   0.214   4.158
  307DIO    C1517157   3.325   0.254   4.031
  307DIO     F517158   3.387   0.337   3.945
  307DIO    C1617159   3.194   0.204   3.993
  307DIO    C1717160   3.118   0.117   4.082
  307DIO    C1817161   3.187   0.063   4.199
  307DIO    C1917162   3.319   0.112   4.236
  307DIO     F617163   3.381   0.047   4.337
  307DIO    C2017164   2.978   0.074   4.048
  307DIO     O317165   2.908   0.166   3.963
  307DIO    C2117166   2.864   0.282   4.032
  307DIO    C2217167   2.775   0.246   4.150
  307DIO    C2317168   2.856   0.150   4.238
  307DIO     O417169   2.900   0.038   4.163
  307DIO    C2417170   2.642   0.179   4.108
  307DIO    C2517171   2.552   0.262   4.017
  307DIO    C2617172   2.513   0.397   4.075
  307DIO     H117173   4.234   0.113   4.170
  307DIO     H217174   4.193   0.551   4.125
  307DIO     H317175   4.016   0.427   3.942
  307DIO     H417176   3.764   0.400   3.929
  307DIO     H517177   3.765   0.176   4.304
  307DIO     H617178   3.156   0.231   3.895
  307DIO     H717179   3.144  -0.018   4.256
  307DIO     H817180   2.987  -0.018   3.990
  307DIO     H917181   2.951   0.340   4.065
  307DIO    H1017182   2.811   0.346   3.960
  307DIO    H1117183   2.753   0.336   4.208
  307DIO    H1217184   2.795   0.113   4.321
  307DIO    H1317185   2.942   0.202   4.283
  307DIO    H1417186   2.662   0.084   4.058
  307DIO    H1517187   2.586   0.154   4.199
  307DIO    H1617188   2.599   0.277   3.919
  307DIO    H1717189   2.460   0.205   3.998
  307DIO    H1817190   2.469   0.387   4.175
  307DIO    H1917191   2.600   0.464   4.082
  307DIO    H2017192   2.440   0.446   4.010
  308DIO     F117193   3.019   9.665   0.238
  308DIO     C117194   2.941   9.708   0.339
  308DIO     C217195   2.797   9.710   0.322
  308DIO     C317196   2.708   9.759   0.430
  308DIO     C417197   2.774   9.804   0.555
  308DIO     C517198   2.918   9.800   0.570
  308DIO     F217199   2.973   9.837   0.687
  308DIO     C617200   3.002   9.753   0.462
  308DIO     F317201   3.135   9.751   0.476
  308DIO     C717202   2.562   9.764   0.414
  308DIO     C817203   2.485   9.886   0.445
  308DIO     C917204   2.340   9.890   0.430
  308DIO    C1017205   2.267   9.770   0.395
  308DIO    C1117206   2.340   9.650   0.356
  308DIO    C1217207   2.484   9.647   0.369
  308DIO     F417208   2.549   9.532   0.338
  308DIO     O117209   2.135   9.786   0.359
  308DIO    C1317210   2.041   9.688   0.389
  308DIO     O217211   2.040   9.592   0.470
  308DIO    C1417212   1.912   9.713   0.323
  308DIO    C1517213   1.845   9.845   0.330
  308DIO     F517214   1.908   9.950   0.388
  308DIO    C1617215   1.714   9.870   0.272
  308DIO    C1717216   1.639   9.761   0.211
  308DIO    C1817217   1.707   9.635   0.188
  308DIO    C1917218   1.839   9.611   0.245
  308DIO     F617219   1.902   9.497   0.208
  308DIO    C2017220   1.498   9.783   0.160
  308DIO     O317221   1.428   9.889   0.227
  308DIO    C2117222   1.385   9.852   0.357
  308DIO    C2217223   1.296   9.728   0.352
  308DIO    C2317224   1.376   9.619   0.283
  308DIO     O417225   1.421   9.662   0.155
  308DIO    C2417226   1.163   9.752   0.277
  308DIO    C2517227   1.072   9.862   0.334
  308DIO    C2617228   1.034   9.840   0.480
  308DIO     H117229   2.754   9.675   0.229
  308DIO     H217230   2.713   9.831   0.641
  308DIO     H317231   2.536   9.977   0.474
  308DIO     H417232   2.285   9.982   0.445
  308DIO     H517233   2.285   9.562   0.325
  308DIO     H617234   1.676   9.971   0.272
  308DIO     H717235   1.665   9.559   0.124
  308DIO     H817236   1.508   9.816   0.056
  308DIO     H917237   1.471   9.835   0.422
  308DIO    H1017238   1.332   9.938   0.400
  308DIO    H1117239   1.273   9.696   0.455
  308DIO    H1217240   1.315   9.529   0.268
  308DIO    H1317241   1.463   9.589   0.344
  308DIO    H1417242   1.183   9.776   0.172
  308DIO    H1517243   1.106   9.658   0.277
  308DIO    H1617244   1.120   9.960   0.323
  308DIO    H1717245   0.980   9.865   0.274
  308DIO    H1817246   0.990   9.741   0.495
  308DIO    H1917247   1.120   9.850   0.546
  308DIO    H2017248   0.960   9.915   0.510
  309DIO     F117249   2.522   9.296   8.053
  309DIO     C117250   2.444   9.202   7.995
  309DIO     C217251   2.300   9.210   8.010
  309DIO     C317252   2.212   9.108   7.950
  309DIO     C417253   2.277   9.000   7.872
  309DIO     C517254   2.421   8.994   7.859
  309DIO     F217255   2.477   8.897   7.784
  309DIO     C617256   2.505   9.095   7.919
  309DIO     F317257   2.639   9.088   7.907
  309DIO     C717258   2.065   9.113   7.965
  309DIO     C817259   1.988   8.996   8.010
  309DIO     C917260   1.843   9.001   8.024
  309DIO    C1017261   1.771   9.120   7.984
  309DIO    C1117262   1.843   9.240   7.947
  309DIO    C1217263   1.987   9.235   7.935
  309DIO     F417264   2.052   9.346   7.895
  309DIO     O117265   1.639   9.127   8.023
  309DIO    C1317266   1.544   9.190   7.943
  309DIO     O217267   1.543   9.222   7.821
  309DIO    C1417268   1.415   9.207   8.010
  309DIO    C1517269   1.349   9.095   8.081
  309DIO     F517270   1.411   8.976   8.093
  309DIO    C1617271   1.218   9.108   8.143
  309DIO    C1717272   1.142   9.232   8.130
  309DIO    C1817273   1.211   9.349   8.076
  309DIO    C1917274   1.342   9.336   8.016
  309DIO     F617275   1.405   9.450   7.981
  309DIO    C2017276   1.001   9.244   8.184
  309DIO     O317277   0.932   9.119   8.190
  309DIO    C2117278   0.888   9.074   8.063
  309DIO    C2217279   0.799   9.178   7.995
  309DIO    C2317280   0.880   9.307   7.989
  309DIO     O417281   0.924   9.345   8.119
  309DIO    C2417282   0.666   9.202   8.071
  309DIO    C2517283   0.576   9.079   8.087
  309DIO    C2617284   0.537   9.013   7.955
  309DIO     H117285   2.258   9.292   8.066
  309DIO     H217286   2.216   8.928   7.818
  309DIO     H317287   2.040   8.905   8.038
  309DIO     H417288   1.788   8.917   8.065
  309DIO     H517289   1.789   9.330   7.922
  309DIO     H617290   1.180   9.025   8.201
  309DIO     H717291   1.168   9.448   8.084
  309DIO     H817292   1.011   9.276   8.288
  309DIO     H917293   0.975   9.051   8.000
  309DIO    H1017294   0.835   8.979   8.077
  309DIO    H1117295   0.777   9.146   7.893
  309DIO    H1217296   0.819   9.389   7.950
  309DIO    H1317297   0.966   9.297   7.922
  309DIO    H1417298   0.686   9.243   8.170
  309DIO    H1517299   0.610   9.279   8.017
  309DIO    H1617300   0.623   9.005   8.153
  309DIO    H1717301   0.484   9.111   8.138
  309DIO    H1817302   0.493   9.086   7.886
  309DIO    H1917303   0.624   8.967   7.907
  309DIO    H2017304   0.464   8.934   7.973
  310DIO     F117305   4.749   4.402   7.861
  310DIO     C117306   4.672   4.496   7.917
  310DIO     C217307   4.528   4.488   7.902
  310DIO     C317308   4.439   4.591   7.961
  310DIO     C417309   4.504   4.700   8.037
  310DIO     C517310   4.649   4.706   8.050
  310DIO     F217311   4.704   4.805   8.123
  310DIO     C617312   4.732   4.604   7.991
  310DIO     F317313   4.866   4.611   8.003
  310DIO     C717314   4.292   4.585   7.946
  310DIO     C817315   4.215   4.702   7.899
  310DIO     C917316   4.071   4.697   7.885
  310DIO    C1017317   3.998   4.578   7.926
  310DIO    C1117318   4.071   4.459   7.966
  310DIO    C1217319   4.215   4.464   7.977
  310DIO     F417320   4.280   4.353   8.019
  310DIO     O117321   3.866   4.571   7.888
  310DIO    C1317322   3.771   4.509   7.969
  310DIO     O217323   3.770   4.478   8.091
  310DIO    C1417324   3.642   4.491   7.902
  310DIO    C1517325   3.576   4.602   7.829
  310DIO     F517326   3.639   4.721   7.815
  310DIO    C1617327   3.445   4.588   7.768
  310DIO    C1717328   3.369   4.464   7.782
  310DIO    C1817329   3.438   4.348   7.838
  310DIO    C1917330   3.570   4.362   7.898
  310DIO     F617331   3.632   4.248   7.935
  310DIO    C2017332   3.229   4.452   7.729
  310DIO     O317333   3.159   4.577   7.721
  310DIO    C2117334   3.115   4.624   7.848
  310DIO    C2217335   3.026   4.520   7.916
  310DIO    C2317336   3.107   4.391   7.924
  310DIO     O417337   3.151   4.351   7.795
  310DIO    C2417338   2.894   4.495   7.841
  310DIO    C2517339   2.803   4.618   7.823
  310DIO    C2617340   2.764   4.686   7.954
  310DIO     H117341   4.485   4.405   7.847
  310DIO     H217342   4.444   4.773   8.090
  310DIO     H317343   4.267   4.793   7.870
  310DIO     H417344   4.016   4.780   7.843
  310DIO     H517345   4.016   4.369   7.991
  310DIO     H617346   3.407   4.670   7.709
  310DIO     H717347   3.395   4.249   7.831
  310DIO     H817348   3.238   4.418   7.625
  310DIO     H917349   3.202   4.647   7.910
  310DIO    H1017350   3.062   4.718   7.832
  310DIO    H1117351   3.004   4.554   8.018
  310DIO    H1217352   3.046   4.310   7.965
  310DIO    H1317353   3.193   4.403   7.991
  310DIO    H1417354   2.913   4.453   7.742
  310DIO    H1517355   2.837   4.419   7.896
  310DIO    H1617356   2.850   4.691   7.757
  310DIO    H1717357   2.711   4.585   7.773
  310DIO    H1817358   2.721   4.614   8.024
  310DIO    H1917359   2.851   4.732   8.002
  310DIO    H2017360   2.691   4.764   7.935
  311DIO     F117361   9.935   1.037   1.882
  311DIO     C117362   9.857   1.050   1.991
  311DIO     C217363   9.713   1.057   1.976
  311DIO     C317364   9.624   1.073   2.093
  311DIO     C417365   9.690   1.079   2.226
  311DIO     C517366   9.834   1.072   2.239
  311DIO     F217367   9.890   1.073   2.361
  311DIO     C617368   9.918   1.057   2.122
  311DIO     F317369  10.052   1.051   2.135
  311DIO     C717370   9.478   1.081   2.079
  311DIO     C817371   9.401   1.190   2.144
  311DIO     C917372   9.256   1.198   2.131
  311DIO    C1017373   9.184   1.093   2.062
  311DIO    C1117374   9.256   0.989   1.991
  311DIO    C1217375   9.400   0.982   2.002
  311DIO     F417376   9.465   0.882   1.940
  311DIO     O117377   9.051   1.119   2.033
  311DIO    C1317378   8.957   1.016   2.033
  311DIO     O217379   8.956   0.901   2.083
  311DIO    C1417380   8.828   1.059   1.978
  311DIO    C1517381   8.761   1.184   2.022
  311DIO     F517382   8.824   1.267   2.107
  311DIO    C1617383   8.631   1.224   1.973
  311DIO    C1717384   8.555   1.138   1.884
  311DIO    C1817385   8.624   1.023   1.826
  311DIO    C1917386   8.755   0.984   1.873
  311DIO     F617387   8.818   0.885   1.805
  311DIO    C2017388   8.414   1.173   1.841
  311DIO     O317389   8.344   1.255   1.936
  311DIO    C2117390   8.301   1.183   2.050
  311DIO    C2217391   8.212   1.065   2.010
  311DIO    C2317392   8.293   0.981   1.912
  311DIO     O417393   8.337   1.059   1.801
  311DIO    C2417394   8.079   1.110   1.944
  311DIO    C2517395   7.988   1.198   2.031
  311DIO    C2617396   7.950   1.136   2.164
  311DIO     H117397   9.671   1.050   1.876
  311DIO     H217398   9.629   1.081   2.316
  311DIO     H317399   9.452   1.268   2.198
  311DIO     H417400   9.201   1.281   2.171
  311DIO     H517401   9.202   0.914   1.935
  311DIO     H617402   8.593   1.321   2.003
  311DIO     H717403   8.581   0.968   1.743
  311DIO     H817404   8.424   1.234   1.751
  311DIO     H917405   8.387   1.147   2.107
  311DIO    H1017406   8.248   1.252   2.116
  311DIO    H1117407   8.189   1.005   2.098
  311DIO    H1217408   8.232   0.899   1.872
  311DIO    H1317409   8.379   0.934   1.962
  311DIO    H1417410   8.099   1.163   1.851
  311DIO    H1517411   8.023   1.020   1.917
  311DIO    H1617412   8.036   1.295   2.048
  311DIO    H1717413   7.897   1.219   1.974
  311DIO    H1817414   7.906   1.036   2.150
  311DIO    H1917415   8.037   1.126   2.230
  311DIO    H2017416   7.876   1.199   2.215
  312DIO     F117417   4.270   1.449   0.275
  312DIO     C117418   4.193   1.344   0.244
  312DIO     C217419   4.049   1.356   0.256
  312DIO     C317420   3.960   1.241   0.225
  312DIO     C417421   4.025   1.117   0.178
  312DIO     C517422   4.170   1.108   0.167
  312DIO     F217423   4.225   0.994   0.120
  312DIO     C617424   4.253   1.221   0.199
  312DIO     F317425   4.387   1.211   0.189
  312DIO     C717426   3.813   1.251   0.238
  312DIO     C817427   3.736   1.149   0.313
  312DIO     C917428   3.592   1.157   0.325
  312DIO    C1017429   3.519   1.262   0.255
  312DIO    C1117430   3.591   1.368   0.188
  312DIO    C1217431   3.736   1.361   0.178
  312DIO     F417432   3.800   1.457   0.110
  312DIO     O117433   3.387   1.279   0.291
  312DIO    C1317434   3.292   1.319   0.197
  312DIO     O217435   3.291   1.318   0.071
  312DIO    C1417436   3.163   1.353   0.258
  312DIO    C1517437   3.097   1.263   0.355
  312DIO     F517438   3.159   1.152   0.398
  312DIO    C1617439   2.966   1.292   0.411
  312DIO    C1717440   2.890   1.408   0.367
  312DIO    C1817441   2.959   1.507   0.284
  312DIO    C1917442   3.091   1.479   0.229
  312DIO     F617443   3.153   1.580   0.166
  312DIO    C2017444   2.750   1.433   0.416
  312DIO     O317445   2.680   1.315   0.454
  312DIO    C2117446   2.636   1.238   0.343
  312DIO    C2217447   2.547   1.321   0.251
  312DIO    C2317448   2.628   1.444   0.211
  312DIO     O417449   2.672   1.515   0.327
  312DIO    C2417450   2.414   1.363   0.317
  312DIO    C2517451   2.324   1.250   0.365
  312DIO    C2617452   2.285   1.152   0.255
  312DIO     H117453   4.006   1.450   0.289
  312DIO     H217454   3.965   1.033   0.145
  312DIO     H317455   3.788   1.068   0.363
  312DIO     H417456   3.536   1.088   0.386
  312DIO     H517457   3.537   1.449   0.141
  312DIO     H617458   2.928   1.227   0.489
  312DIO     H717459   2.916   1.605   0.267
  312DIO     H817460   2.759   1.492   0.508
  312DIO     H917461   2.723   1.199   0.288
  312DIO    H1017462   2.583   1.150   0.381
  312DIO    H1117463   2.525   1.263   0.160
  312DIO    H1217464   2.567   1.513   0.152
  312DIO    H1317465   2.714   1.417   0.149
  312DIO    H1417466   2.434   1.429   0.403
  312DIO    H1517467   2.358   1.424   0.245
  312DIO    H1617468   2.371   1.195   0.447
  312DIO    H1717469   2.232   1.294   0.406
  312DIO    H1817470   2.241   1.203   0.169
  312DIO    H1917471   2.372   1.094   0.220
  312DIO    H2017472   2.212   1.080   0.293
  313DIO     F117473   6.160   8.131   9.282
  313DIO     C117474   6.082   8.241   9.274
  313DIO     C217475   5.938   8.226   9.266
  313DIO     C317476   5.849   8.344   9.255
  313DIO     C417477   5.915   8.477   9.254
  313DIO     C517478   6.059   8.489   9.262
  313DIO     F217479   6.114   8.612   9.265
  313DIO     C617480   6.143   8.372   9.272
  313DIO     F317481   6.276   8.385   9.278
  313DIO     C717482   5.703   8.330   9.246
  313DIO     C817483   5.626   8.399   9.140
  313DIO     C917484   5.481   8.387   9.132
  313DIO    C1017485   5.408   8.314   9.234
  313DIO    C1117486   5.481   8.238   9.335
  313DIO    C1217487   5.625   8.249   9.342
  313DIO     F417488   5.690   8.183   9.439
  313DIO     O117489   5.276   8.286   9.206
  313DIO    C1317490   5.182   8.281   9.309
  313DIO     O217491   5.181   8.326   9.426
  313DIO    C1417492   5.052   8.228   9.264
  313DIO    C1517493   4.986   8.277   9.141
  313DIO     F517494   5.049   8.366   9.061
  313DIO    C1617495   4.855   8.230   9.099
  313DIO    C1717496   4.780   8.137   9.181
  313DIO    C1817497   4.848   8.075   9.294
  313DIO    C1917498   4.980   8.120   9.335
  313DIO     F617499   5.042   8.048   9.431
  313DIO    C2017500   4.639   8.096   9.145
  313DIO     O317501   4.569   8.194   9.066
  313DIO    C2117502   4.525   8.305   9.143
  313DIO    C2217503   4.437   8.260   9.259
  313DIO    C2317504   4.517   8.159   9.340
  313DIO     O417505   4.562   8.052   9.257
  313DIO    C2417506   4.304   8.197   9.212
  313DIO    C2517507   4.213   8.287   9.127
  313DIO    C2617508   4.175   8.417   9.195
  313DIO     H117509   5.895   8.126   9.269
  313DIO     H217510   5.854   8.567   9.256
  313DIO     H317511   5.677   8.456   9.064
  313DIO     H417512   5.426   8.430   9.049
  313DIO     H517513   5.426   8.180   9.407
  313DIO     H617514   4.817   8.264   9.003
  313DIO     H717515   4.805   7.989   9.345
  313DIO     H817516   4.649   8.009   9.079
  313DIO     H917517   4.612   8.361   9.181
  313DIO    H1017518   4.473   8.374   9.076
  313DIO    H1117519   4.414   8.346   9.323
  313DIO    H1217520   4.456   8.116   9.420
  313DIO    H1317521   4.603   8.207   9.388
  313DIO    H1417522   4.324   8.105   9.155
  313DIO    H1517523   4.247   8.166   9.301
  313DIO    H1617524   4.260   8.308   9.031
  313DIO    H1717525   4.121   8.231   9.104
  313DIO    H1817526   4.131   8.399   9.293
  313DIO    H1917527   4.261   8.483   9.207
  313DIO    H2017528   4.101   8.471   9.134
  314DIO     F117529   4.370   5.999   1.835
  314DIO     C117530   4.292   5.896   1.796
  314DIO     C217531   4.148   5.907   1.809
  314DIO     C317532   4.059   5.795   1.769
  314DIO     C417533   4.125   5.675   1.713
  314DIO     C517534   4.269   5.667   1.701
  314DIO     F217535   4.324   5.557   1.646
  314DIO     C617536   4.353   5.777   1.742
  314DIO     F317537   4.487   5.768   1.731
  314DIO     C717538   3.913   5.804   1.783
  314DIO     C817539   3.836   5.696   1.849
  314DIO     C917540   3.691   5.704   1.862
  314DIO    C1017541   3.618   5.814   1.801
  314DIO    C1117542   3.691   5.925   1.741
  314DIO    C1217543   3.835   5.918   1.731
  314DIO     F417544   3.900   6.020   1.670
  314DIO     O117545   3.486   5.827   1.838
  314DIO    C1317546   3.392   5.875   1.747
  314DIO     O217547   3.391   5.884   1.621
  314DIO    C1417548   3.263   5.904   1.810
  314DIO    C1517549   3.196   5.807   1.900
  314DIO     F517550   3.259   5.693   1.935
  314DIO    C1617551   3.066   5.832   1.959
  314DIO    C1717552   2.990   5.951   1.923
  314DIO    C1817553   3.059   6.056   1.848
  314DIO    C1917554   3.190   6.032   1.791
  314DIO     F617555   3.253   6.138   1.736
  314DIO    C2017556   2.849   5.972   1.974
  314DIO     O317557   2.779   5.851   2.003
  314DIO    C2117558   2.736   5.783   1.886
  314DIO    C2217559   2.647   5.873   1.801
  314DIO    C2317560   2.728   5.999   1.771
  314DIO     O417561   2.772   6.060   1.891
  314DIO    C2417562   2.514   5.910   1.870
  314DIO    C2517563   2.423   5.793   1.909
  314DIO    C2617564   2.385   5.703   1.792
  314DIO     H117565   4.105   5.998   1.849
  314DIO     H217566   4.064   5.594   1.673
  314DIO     H317567   3.887   5.612   1.894
  314DIO     H417568   3.636   5.630   1.918
  314DIO     H517569   3.637   6.009   1.701
  314DIO     H617570   3.027   5.761   2.031
  314DIO     H717571   3.016   6.154   1.838
  314DIO     H817572   2.859   6.024   2.070
  314DIO     H917573   2.822   5.749   1.829
  314DIO    H1017574   2.683   5.692   1.918
  314DIO    H1117575   2.624   5.822   1.706
  314DIO    H1217576   2.666   6.072   1.717
  314DIO    H1317577   2.814   5.976   1.707
  314DIO    H1417578   2.534   5.969   1.961
  314DIO    H1517579   2.458   5.976   1.803
  314DIO    H1617580   2.471   5.733   1.987
  314DIO    H1717581   2.332   5.834   1.953
  314DIO    H1817582   2.341   5.762   1.711
  314DIO    H1917583   2.471   5.649   1.753
  314DIO    H2017584   2.311   5.629   1.825
  315DIO     F117585   2.565   5.152   3.360
  315DIO     C117586   2.488   5.161   3.250
  315DIO     C217587   2.343   5.151   3.264
  315DIO     C317588   2.255   5.158   3.146
  315DIO     C417589   2.320   5.177   3.014
  315DIO     C517590   2.464   5.187   3.003
  315DIO     F217591   2.520   5.209   2.882
  315DIO     C617592   2.548   5.179   3.120
  315DIO     F317593   2.682   5.187   3.108
  315DIO     C717594   2.108   5.147   3.157
  315DIO     C817595   2.031   5.053   3.073
  315DIO     C917596   1.886   5.043   3.084
  315DIO    C1017597   1.814   5.133   3.172
  315DIO    C1117598   1.886   5.221   3.262
  315DIO    C1217599   2.030   5.229   3.252
  315DIO     F417600   2.095   5.316   3.333
  315DIO     O117601   1.682   5.101   3.196
  315DIO    C1317602   1.587   5.202   3.215
  315DIO     O217603   1.586   5.325   3.189
  315DIO    C1417604   1.458   5.149   3.261
  315DIO    C1517605   1.392   5.035   3.194
  315DIO     F517606   1.454   4.970   3.094
  315DIO    C1617607   1.261   4.986   3.234
  315DIO    C1717608   1.185   5.054   3.339
  315DIO    C1817609   1.254   5.156   3.417
  315DIO    C1917610   1.386   5.203   3.379
  315DIO     F617611   1.448   5.287   3.464
  315DIO    C2017612   1.044   5.012   3.373
  315DIO     O317613   0.975   4.949   3.265
  315DIO    C2117614   0.931   5.042   3.167
  315DIO    C2217615   0.842   5.149   3.229
  315DIO    C2317616   0.923   5.214   3.341
  315DIO     O417617   0.967   5.116   3.434
  315DIO    C2417618   0.709   5.093   3.284
  315DIO    C2517619   0.619   5.023   3.183
  315DIO    C2617620   0.580   5.110   3.064
  315DIO     H117621   2.301   5.139   3.363
  315DIO     H217622   2.260   5.193   2.925
  315DIO     H317623   2.083   4.986   3.005
  315DIO     H417624   1.831   4.968   3.029
  315DIO     H517625   1.832   5.284   3.331
  315DIO     H617626   1.223   4.897   3.186
  315DIO     H717627   1.211   5.193   3.509
  315DIO     H817628   1.054   4.934   3.450
  315DIO     H917629   1.018   5.087   3.118
  315DIO    H1017630   0.878   4.986   3.089
  315DIO    H1117631   0.820   5.226   3.153
  315DIO    H1217632   0.862   5.286   3.396
  315DIO    H1317633   1.009   5.269   3.301
  315DIO    H1417634   0.729   5.023   3.366
  315DIO    H1517635   0.653   5.176   3.329
  315DIO    H1617636   0.666   4.931   3.147
  315DIO    H1717637   0.527   4.992   3.235
  315DIO    H1817638   0.536   5.204   3.097
  315DIO    H1917639   0.667   5.132   3.001
  315DIO    H2017640   0.507   5.058   3.002
  316DIO     F117641   9.037   0.661   0.743
  316DIO     C117642   8.959   0.711   0.841
  316DIO     C217643   8.815   0.712   0.824
  316DIO     C317644   8.726   0.768   0.928
  316DIO     C417645   8.792   0.820   1.051
  316DIO     C517646   8.936   0.818   1.065
  316DIO     F217647   8.992   0.863   1.180
  316DIO     C617648   9.020   0.764   0.961
  316DIO     F317649   9.154   0.763   0.975
  316DIO     C717650   8.580   0.771   0.913
  316DIO     C817651   8.503   0.896   0.935
  316DIO     C917652   8.358   0.899   0.920
  316DIO    C1017653   8.286   0.776   0.892
  316DIO    C1117654   8.358   0.654   0.862
  316DIO    C1217655   8.502   0.652   0.875
  316DIO     F417656   8.567   0.536   0.851
  316DIO     O117657   8.153   0.790   0.856
  316DIO    C1317658   8.059   0.695   0.892
  316DIO     O217659   8.058   0.604   0.979
  316DIO    C1417660   7.930   0.715   0.825
  316DIO    C1517661   7.863   0.847   0.823
  316DIO     F517662   7.926   0.955   0.874
  316DIO    C1617663   7.733   0.868   0.763
  316DIO    C1717664   7.657   0.756   0.709
  316DIO    C1817665   7.726   0.628   0.695
  316DIO    C1917666   7.857   0.608   0.753
  316DIO     F617667   7.920   0.492   0.724
  316DIO    C2017668   7.516   0.774   0.658
  316DIO     O317669   7.446   0.884   0.717
  316DIO    C2117670   7.403   0.856   0.850
  316DIO    C2217671   7.314   0.732   0.853
  316DIO    C2317672   7.395   0.619   0.791
  316DIO     O417673   7.439   0.654   0.660
  316DIO    C2417674   7.181   0.751   0.776
  316DIO    C2517675   7.090   0.864   0.826
  316DIO    C2617676   7.052   0.852   0.973
  316DIO     H117677   8.773   0.671   0.733
  316DIO     H217678   8.731   0.853   1.134
  316DIO     H317679   8.554   0.988   0.958
  316DIO     H417680   8.303   0.991   0.929
  316DIO     H517681   8.304   0.564   0.836
  316DIO     H617682   7.695   0.970   0.757
  316DIO     H717683   7.683   0.548   0.636
  316DIO     H817684   7.526   0.800   0.552
  316DIO     H917685   7.489   0.843   0.915
  316DIO    H1017686   7.350   0.944   0.887
  316DIO    H1117687   7.291   0.706   0.957
  316DIO    H1217688   7.334   0.528   0.782
  316DIO    H1317689   7.481   0.593   0.853
  316DIO    H1417690   7.201   0.768   0.670
  316DIO    H1517691   7.125   0.657   0.782
  316DIO    H1617692   7.138   0.961   0.808
  316DIO    H1717693   6.999   0.863   0.766
  316DIO    H1817694   7.008   0.754   0.994
  316DIO    H1917695   7.139   0.866   1.038
  316DIO    H2017696   6.978   0.929   0.998
  317DIO     F117697   7.686   7.568   2.116
  317DIO     C117698   7.608   7.461   2.091
  317DIO     C217699   7.464   7.473   2.103
  317DIO     C317700   7.375   7.357   2.078
  317DIO     C417701   7.441   7.230   2.039
  317DIO     C517702   7.585   7.221   2.028
  317DIO     F217703   7.640   7.105   1.988
  317DIO     C617704   7.669   7.335   2.053
  317DIO     F317705   7.803   7.325   2.044
  317DIO     C717706   7.229   7.367   2.091
  317DIO     C817707   7.152   7.270   2.171
  317DIO     C917708   7.007   7.279   2.183
  317DIO    C1017709   6.934   7.380   2.107
  317DIO    C1117710   7.007   7.482   2.033
  317DIO    C1217711   7.151   7.474   2.024
  317DIO     F417712   7.216   7.566   1.950
  317DIO     O117713   6.802   7.398   2.142
  317DIO    C1317714   6.708   7.433   2.045
  317DIO     O217715   6.707   7.425   1.920
  317DIO    C1417716   6.579   7.470   2.104
  317DIO    C1517717   6.512   7.387   2.207
  317DIO     F517718   6.575   7.278   2.256
  317DIO    C1617719   6.382   7.419   2.261
  317DIO    C1717720   6.306   7.532   2.210
  317DIO    C1817721   6.375   7.626   2.122
  317DIO    C1917722   6.506   7.595   2.069
  317DIO     F617723   6.569   7.692   1.999
  317DIO    C2017724   6.165   7.560   2.257
  317DIO     O317725   6.095   7.444   2.303
  317DIO    C2117726   6.052   7.360   2.196
  317DIO    C2217727   5.963   7.438   2.099
  317DIO    C2317728   6.044   7.559   2.053
  317DIO     O417729   6.088   7.636   2.164
  317DIO    C2417730   5.830   7.485   2.163
  317DIO    C2517731   5.739   7.374   2.217
  317DIO    C2617732   5.701   7.269   2.113
  317DIO     H117733   7.421   7.569   2.130
  317DIO     H217734   7.380   7.145   2.010
  317DIO     H317735   7.203   7.193   2.226
  317DIO     H417736   6.952   7.213   2.248
  317DIO     H517737   6.953   7.560   1.982
  317DIO     H617738   6.343   7.358   2.342
  317DIO     H717739   6.332   7.722   2.098
  317DIO     H817740   6.175   7.624   2.346
  317DIO     H917741   6.138   7.319   2.143
  317DIO    H1017742   5.999   7.275   2.239
  317DIO    H1117743   5.940   7.375   2.012
  317DIO    H1217744   5.982   7.624   1.989
  317DIO    H1317745   6.130   7.528   1.992
  317DIO    H1417746   5.850   7.555   2.245
  317DIO    H1517747   5.774   7.541   2.088
  317DIO    H1617748   5.787   7.324   2.303
  317DIO    H1717749   5.648   7.420   2.256
  317DIO    H1817750   5.657   7.316   2.025
  317DIO    H1917751   5.787   7.210   2.082
  317DIO    H2017752   5.627   7.200   2.155
  318DIO     F117753   9.859   9.330   9.905
  318DIO     C117754   9.782   9.331   9.795
  318DIO     C217755   9.638   9.322   9.810
  318DIO     C317756   9.549   9.321   9.691
  318DIO     C417757   9.614   9.331   9.559
  318DIO     C517758   9.759   9.339   9.547
  318DIO     F217759   9.814   9.353   9.425
  318DIO     C617760   9.842   9.340   9.664
  318DIO     F317761   9.976   9.347   9.652
  318DIO     C717762   9.403   9.311   9.704
  318DIO     C817763   9.325   9.211   9.626
  318DIO     C917764   9.181   9.201   9.638
  318DIO    C1017765   9.108   9.297   9.720
  318DIO    C1117766   9.181   9.392   9.803
  318DIO    C1217767   9.325   9.399   9.793
  318DIO     F417768   9.390   9.491   9.867
  318DIO     O117769   8.976   9.268   9.745
  318DIO    C1317770   8.881   9.369   9.758
  318DIO     O217771   8.881   9.490   9.722
  318DIO    C1417772   8.752   9.320   9.807
  318DIO    C1517773   8.686   9.202   9.748
  318DIO     F517774   8.749   9.130   9.653
  318DIO    C1617775   8.555   9.156   9.791
  318DIO    C1717776   8.479   9.231   9.891
  318DIO    C1817777   8.548   9.338   9.963
  318DIO    C1917778   8.680   9.382   9.920
  318DIO     F617779   8.742   9.472  10.000
  318DIO    C2017780   8.339   9.191   9.929
  318DIO     O317781   8.269   9.121   9.825
  318DIO    C2117782   8.225   9.206   9.720
  318DIO    C2217783   8.136   9.318   9.775
  318DIO    C2317784   8.217   9.390   9.882
  318DIO     O417785   8.261   9.299   9.982
  318DIO    C2417786   8.004   9.266   9.834
  318DIO    C2517787   7.913   9.189   9.738
  318DIO    C2617788   7.875   9.267   9.613
  318DIO     H117789   9.595   9.317   9.909
  318DIO     H217790   9.554   9.340   9.469
  318DIO     H317791   9.377   9.140   9.563
  318DIO     H417792   9.126   9.123   9.588
  318DIO     H517793   9.126   9.459   9.867
  318DIO     H617794   8.517   9.063   9.750
  318DIO     H717795   8.505   9.382  10.052
  318DIO     H817796   8.348   9.119  10.011
  318DIO     H917797   8.312   9.248   9.668
  318DIO    H1017798   8.173   9.145   9.647
  318DIO    H1117799   8.114   9.389   9.694
  318DIO    H1217800   8.156   9.466   9.932
  318DIO    H1317801   8.303   9.442   9.838
  318DIO    H1417802   8.024   9.202   9.921
  318DIO    H1517803   7.947   9.352   9.872
  318DIO    H1617804   7.960   9.094   9.709
  318DIO    H1717805   7.821   9.161   9.792
  318DIO    H1817806   7.831   9.363   9.639
  318DIO    H1917807   7.961   9.284   9.549
  318DIO    H2017808   7.801   9.210   9.555
  319DIO     F117809   4.387   9.821   7.852
  319DIO     C117810   4.309   9.821   7.742
  319DIO     C217811   4.165   9.812   7.756
  319DIO     C317812   4.076   9.810   7.638
  319DIO     C417813   4.142   9.819   7.505
  319DIO     C517814   4.286   9.828   7.493
  319DIO     F217815   4.341   9.841   7.371
  319DIO     C617816   4.370   9.829   7.611
  319DIO     F317817   4.504   9.836   7.599
  319DIO     C717818   3.930   9.800   7.650
  319DIO     C817819   3.853   9.700   7.574
  319DIO     C917820   3.708   9.691   7.586
  319DIO    C1017821   3.635   9.787   7.666
  319DIO    C1117822   3.708   9.882   7.749
  319DIO    C1217823   3.852   9.889   7.739
  319DIO     F417824   3.917   9.982   7.812
  319DIO     O117825   3.503   9.757   7.692
  319DIO    C1317826   3.409   9.859   7.704
  319DIO     O217827   3.408   9.980   7.668
  319DIO    C1417828   3.280   9.810   7.754
  319DIO    C1517829   3.213   9.691   7.696
  319DIO     F517830   3.276   9.619   7.601
  319DIO    C1617831   3.083   9.646   7.739
  319DIO    C1717832   3.007   9.721   7.838
  319DIO    C1817833   3.076   9.828   7.909
  319DIO    C1917834   3.207   9.873   7.867
  319DIO     F617835   3.270   9.963   7.946
  319DIO    C2017836   2.866   9.681   7.876
  319DIO     O317837   2.796   9.611   7.773
  319DIO    C2117838   2.753   9.696   7.668
  319DIO    C2217839   2.664   9.808   7.721
  319DIO    C2317840   2.745   9.881   7.829
  319DIO     O417841   2.789   9.790   7.929
  319DIO    C2417842   2.531   9.756   7.781
  319DIO    C2517843   2.440   9.678   7.685
  319DIO    C2617844   2.402   9.756   7.560
  319DIO     H117845   4.122   9.807   7.856
  319DIO     H217846   4.081   9.828   7.416
  319DIO     H317847   3.904   9.628   7.511
  319DIO     H417848   3.653   9.612   7.536
  319DIO     H517849   3.654   9.950   7.813
  319DIO     H617850   3.044   9.553   7.698
  319DIO     H717851   3.033   9.873   7.998
  319DIO     H817852   2.876   9.610   7.959
  319DIO     H917853   2.839   9.738   7.615
  319DIO    H1017854   2.700   9.634   7.594
  319DIO    H1117855   2.641   9.878   7.641
  319DIO    H1217856   2.683   9.957   7.878
  319DIO    H1317857   2.831   9.932   7.785
  319DIO    H1417858   2.551   9.692   7.868
  319DIO    H1517859   2.475   9.842   7.819
  319DIO    H1617860   2.488   9.584   7.657
  319DIO    H1717861   2.349   9.651   7.739
  319DIO    H1817862   2.358   9.853   7.586
  319DIO    H1917863   2.488   9.773   7.495
  319DIO    H2017864   2.328   9.699   7.502
  320DIO     F117865   4.140   6.190   4.876
  320DIO     C117866   4.062   6.273   4.949
  320DIO     C217867   3.918   6.267   4.933
  320DIO     C317868   3.829   6.358   5.010
  320DIO     C417869   3.895   6.451   5.105
  320DIO     C517870   4.039   6.454   5.119
  320DIO     F217871   4.094   6.537   5.209
  320DIO     C617872   4.123   6.365   5.042
  320DIO     F317873   4.257   6.370   5.055
  320DIO     C717874   3.683   6.355   4.994
  320DIO     C817875   3.606   6.479   4.970
  320DIO     C917876   3.461   6.476   4.955
  320DIO    C1017877   3.388   6.352   4.973
  320DIO    C1117878   3.461   6.227   4.990
  320DIO    C1217879   3.605   6.229   5.002
  320DIO     F417880   3.670   6.113   5.023
  320DIO     O117881   3.256   6.352   4.934
  320DIO    C1317882   3.162   6.275   5.002
  320DIO     O217883   3.161   6.222   5.117
  320DIO    C1417884   3.033   6.270   4.933
  320DIO    C1517885   2.966   6.393   4.883
  320DIO     F517886   3.029   6.512   4.891
  320DIO    C1617887   2.836   6.391   4.820
  320DIO    C1717888   2.760   6.266   4.810
  320DIO    C1817889   2.829   6.142   4.844
  320DIO    C1917890   2.960   6.144   4.905
  320DIO     F617891   3.023   6.026   4.920
  320DIO    C2017892   2.619   6.264   4.755
  320DIO     O317893   2.549   6.389   4.771
  320DIO    C2117894   2.506   6.411   4.905
  320DIO    C2217895   2.417   6.297   4.953
  320DIO    C2317896   2.498   6.168   4.936
  320DIO     O417897   2.542   6.153   4.801
  320DIO    C2417898   2.284   6.286   4.874
  320DIO    C2517899   2.193   6.409   4.880
  320DIO    C2617900   2.155   6.452   5.021
  320DIO     H117901   3.875   6.196   4.863
  320DIO     H217902   3.834   6.512   5.171
  320DIO     H317903   3.657   6.573   4.958
  320DIO     H417904   3.406   6.565   4.929
  320DIO     H517905   3.407   6.134   4.998
  320DIO     H617906   2.797   6.483   4.777
  320DIO     H717907   2.786   6.046   4.818
  320DIO     H817908   2.629   6.250   4.647
  320DIO     H917909   2.592   6.422   4.970
  320DIO    H1017910   2.453   6.506   4.907
  320DIO    H1117911   2.394   6.310   5.059
  320DIO    H1217912   2.436   6.081   4.961
  320DIO    H1317913   2.584   6.167   5.004
  320DIO    H1417914   2.304   6.263   4.769
  320DIO    H1517915   2.228   6.200   4.914
  320DIO    H1617916   2.241   6.494   4.828
  320DIO    H1717917   2.102   6.387   4.824
  320DIO    H1817918   2.111   6.368   5.076
  320DIO    H1917919   2.241   6.489   5.076
  320DIO    H2017920   2.081   6.532   5.017
  321DIO     F117921   5.952   2.712   3.990
  321DIO     C117922   5.874   2.817   4.022
  321DIO     C217923   5.730   2.805   4.009
  321DIO     C317924   5.642   2.919   4.041
  321DIO     C417925   5.707   3.044   4.088
  321DIO     C517926   5.851   3.053   4.099
  321DIO     F217927   5.907   3.166   4.146
  321DIO     C617928   5.935   2.940   4.067
  321DIO     F317929   6.069   2.950   4.077
  321DIO     C717930   5.495   2.910   4.028
  321DIO     C817931   5.418   3.012   3.953
  321DIO     C917932   5.273   3.004   3.941
  321DIO    C1017933   5.201   2.899   4.010
  321DIO    C1117934   5.273   2.793   4.078
  321DIO    C1217935   5.417   2.800   4.088
  321DIO     F417936   5.482   2.703   4.156
  321DIO     O117937   5.069   2.882   3.975
  321DIO    C1317938   4.974   2.842   4.069
  321DIO     O217939   4.973   2.842   4.195
  321DIO    C1417940   4.845   2.808   4.008
  321DIO    C1517941   4.779   2.898   3.911
  321DIO     F517942   4.841   3.009   3.868
  321DIO    C1617943   4.648   2.869   3.855
  321DIO    C1717944   4.572   2.753   3.898
  321DIO    C1817945   4.641   2.654   3.981
  321DIO    C1917946   4.772   2.682   4.036
  321DIO     F617947   4.835   2.581   4.099
  321DIO    C2017948   4.431   2.728   3.850
  321DIO     O317949   4.362   2.847   3.811
  321DIO    C2117950   4.318   2.923   3.923
  321DIO    C2217951   4.229   2.840   4.015
  321DIO    C2317952   4.310   2.716   4.054
  321DIO     O417953   4.354   2.646   3.938
  321DIO    C2417954   4.096   2.798   3.948
  321DIO    C2517955   4.006   2.912   3.901
  321DIO    C2617956   3.967   3.009   4.011
  321DIO     H117957   5.688   2.711   3.976
  321DIO     H217958   5.646   3.127   4.122
  321DIO     H317959   5.470   3.093   3.903
  321DIO     H417960   5.218   3.074   3.880
  321DIO     H517961   5.219   2.712   4.125
  321DIO     H617962   4.610   2.935   3.777
  321DIO     H717963   4.598   2.556   3.998
  321DIO     H817964   4.441   2.669   3.757
  321DIO     H917965   4.405   2.962   3.978
  321DIO    H1017966   4.265   3.011   3.885
  321DIO    H1117967   4.207   2.898   4.105
  321DIO    H1217968   4.249   2.648   4.113
  321DIO    H1317969   4.396   2.744   4.116
  321DIO    H1417970   4.116   2.732   3.862
  321DIO    H1517971   4.040   2.737   4.020
  321DIO    H1617972   4.053   2.966   3.818
  321DIO    H1717973   3.914   2.868   3.860
  321DIO    H1817974   3.923   2.957   4.097
  321DIO    H1917975   4.054   3.067   4.046
  321DIO    H2017976   3.894   3.081   3.973
  322DIO     F117977   9.955   3.548   1.397
  322DIO     C117978   9.877   3.448   1.443
  322DIO     C217979   9.733   3.464   1.445
  322DIO     C317980   9.644   3.358   1.497
  322DIO     C417981   9.710   3.234   1.544
  322DIO     C517982   9.854   3.219   1.541
  322DIO     F217983   9.910   3.103   1.581
  322DIO     C617984   9.938   3.326   1.490
  322DIO     F317985  10.072   3.311   1.489
  322DIO     C717986   9.498   3.374   1.500
  322DIO     C817987   9.421   3.346   1.623
  322DIO     C917988   9.276   3.361   1.627
  322DIO    C1017989   9.204   3.394   1.506
  322DIO    C1117990   9.276   3.429   1.385
  322DIO    C1217991   9.420   3.416   1.382
  322DIO     F417992   9.485   3.444   1.267
  322DIO     O117993   9.071   3.430   1.521
  322DIO    C1317994   8.977   3.398   1.424
  322DIO     O217995   8.976   3.314   1.330
  322DIO    C1417996   8.848   3.463   1.447
  322DIO    C1517997   8.781   3.461   1.580
  322DIO     F517998   8.844   3.405   1.686
  322DIO    C1617999   8.651   3.519   1.603
  322DIO    C1718000   8.575   3.577   1.493
  322DIO    C1818001   8.644   3.596   1.366
  322DIO    C1918002   8.775   3.539   1.343
  322DIO     F618003   8.838   3.573   1.228
  322DIO    C2018004   8.434   3.628   1.513
  322DIO     O318005   8.364   3.565   1.620
  322DIO    C2118006   8.321   3.433   1.587
  322DIO    C2218007   8.232   3.435   1.463
  322DIO    C2318008   8.313   3.501   1.352
  322DIO     O418009   8.357   3.631   1.392
  322DIO    C2418010   8.099   3.511   1.485
  322DIO    C2518011   8.008   3.457   1.596
  322DIO    C2618012   7.970   3.311   1.578
  322DIO     H118013   9.691   3.557   1.407
  322DIO     H218014   9.649   3.149   1.574
  322DIO     H318015   9.472   3.320   1.715
  322DIO     H418016   9.221   3.349   1.719
  322DIO     H518017   9.222   3.458   1.296
  322DIO     H618018   8.613   3.521   1.704
  322DIO     H718019   8.601   3.658   1.288
  322DIO     H818020   8.444   3.733   1.543
  322DIO     H918021   8.407   3.368   1.572
  322DIO    H1018022   8.268   3.393   1.674
  322DIO    H1118023   8.209   3.332   1.434
  322DIO    H1218024   8.252   3.514   1.262
  322DIO    H1318025   8.399   3.440   1.324
  322DIO    H1418026   8.119   3.616   1.506
  322DIO    H1518027   8.043   3.509   1.391
  322DIO    H1618028   8.056   3.470   1.694
  322DIO    H1718029   7.917   3.517   1.598
  322DIO    H1818030   7.926   3.293   1.480
  322DIO    H1918031   8.057   3.245   1.590
  322DIO    H2018032   7.896   3.282   1.654
  323DIO     F118033   3.007   5.225   9.816
  323DIO     C118034   2.930   5.130   9.760
  323DIO     C218035   2.786   5.138   9.775
  323DIO     C318036   2.697   5.035   9.717
  323DIO     C418037   2.762   4.925   9.642
  323DIO     C518038   2.907   4.919   9.628
  323DIO     F218039   2.962   4.820   9.556
  323DIO     C618040   2.990   5.021   9.687
  323DIO     F318041   3.124   5.014   9.674
  323DIO     C718042   2.550   5.041   9.732
  323DIO     C818043   2.473   4.924   9.779
  323DIO     C918044   2.329   4.929   9.793
  323DIO    C1018045   2.256   5.048   9.751
  323DIO    C1118046   2.329   5.167   9.711
  323DIO    C1218047   2.473   5.162   9.699
  323DIO     F418048   2.538   5.272   9.657
  323DIO     O118049   2.124   5.055   9.790
  323DIO    C1318050   2.029   5.117   9.708
  323DIO     O218051   2.028   5.147   9.586
  323DIO    C1418052   1.900   5.135   9.775
  323DIO    C1518053   1.834   5.025   9.848
  323DIO     F518054   1.897   4.906   9.863
  323DIO    C1618055   1.703   5.039   9.910
  323DIO    C1718056   1.627   5.163   9.895
  323DIO    C1818057   1.696   5.278   9.838
  323DIO    C1918058   1.828   5.264   9.778
  323DIO     F618059   1.890   5.378   9.741
  323DIO    C2018060   1.487   5.175   9.948
  323DIO     O318061   1.417   5.051   9.957
  323DIO    C2118062   1.373   5.003   9.830
  323DIO    C2218063   1.284   5.106   9.761
  323DIO    C2318064   1.365   5.235   9.752
  323DIO     O418065   1.409   5.276   9.881
  323DIO    C2418066   1.152   5.131   9.836
  323DIO    C2518067   1.061   5.009   9.854
  323DIO    C2618068   1.022   4.940   9.724
  323DIO     H118069   2.743   5.222   9.829
  323DIO     H218070   2.702   4.852   9.589
  323DIO     H318071   2.525   4.834   9.809
  323DIO     H418072   2.274   4.847   9.836
  323DIO     H518073   2.274   5.257   9.685
  323DIO     H618074   1.665   4.957   9.969
  323DIO     H718075   1.653   5.377   9.844
  323DIO     H818076   1.496   5.210  10.052
  323DIO     H918077   1.460   4.979   9.768
  323DIO    H1018078   1.320   4.909   9.846
  323DIO    H1118079   1.262   5.072   9.659
  323DIO    H1218080   1.304   5.316   9.711
  323DIO    H1318081   1.451   5.223   9.685
  323DIO    H1418082   1.171   5.174   9.935
  323DIO    H1518083   1.095   5.208   9.780
  323DIO    H1618084   1.108   4.937   9.922
  323DIO    H1718085   0.969   5.042   9.905
  323DIO    H1818086   0.979   5.011   9.654
  323DIO    H1918087   1.109   4.893   9.677
  323DIO    H2018088   0.949   4.862   9.744
  324DIO     F118089   8.953   5.908   8.522
  324DIO     C118090   8.875   5.853   8.617
  324DIO     C218091   8.731   5.868   8.609
  324DIO     C318092   8.642   5.811   8.713
  324DIO     C418093   8.708   5.737   8.823
  324DIO     C518094   8.852   5.724   8.829
  324DIO     F218095   8.908   5.652   8.929
  324DIO     C618096   8.936   5.781   8.726
  324DIO     F318097   9.070   5.769   8.734
  324DIO     C718098   8.496   5.826   8.707
  324DIO     C818099   8.419   5.875   8.823
  324DIO     C918100   8.274   5.889   8.817
  324DIO    C1018101   8.202   5.845   8.699
  324DIO    C1118102   8.274   5.804   8.581
  324DIO    C1218103   8.418   5.792   8.586
  324DIO     F418104   8.483   5.749   8.476
  324DIO     O118105   8.069   5.884   8.692
  324DIO    C1318106   7.975   5.801   8.631
  324DIO     O218107   7.974   5.679   8.602
  324DIO    C1418108   7.846   5.868   8.612
  324DIO    C1518109   7.780   5.943   8.721
  324DIO     F518110   7.842   5.959   8.840
  324DIO    C1618111   7.649   6.004   8.706
  324DIO    C1718112   7.573   5.988   8.583
  324DIO    C1818113   7.642   5.930   8.468
  324DIO    C1918114   7.773   5.870   8.483
  324DIO     F618115   7.836   5.831   8.369
  324DIO    C2018116   7.432   6.041   8.570
  324DIO     O318117   7.363   6.051   8.694
  324DIO    C2118118   7.319   5.925   8.743
  324DIO    C2218119   7.230   5.854   8.641
  324DIO    C2318120   7.311   5.845   8.512
  324DIO     O418121   7.355   5.973   8.470
  324DIO    C2418122   7.097   5.929   8.615
  324DIO    C2518123   7.007   5.949   8.737
  324DIO    C2618124   6.968   5.820   8.807
  324DIO     H118125   8.689   5.922   8.525
  324DIO     H218126   8.647   5.685   8.896
  324DIO     H318127   8.470   5.906   8.913
  324DIO     H418128   8.219   5.933   8.899
  324DIO     H518129   8.220   5.777   8.491
  324DIO     H618130   7.611   6.064   8.788
  324DIO     H718131   7.599   5.935   8.369
  324DIO     H818132   7.442   6.144   8.534
  324DIO     H918133   7.406   5.863   8.768
  324DIO    H1018134   7.266   5.942   8.838
  324DIO    H1118135   7.207   5.753   8.676
  324DIO    H1218136   7.250   5.802   8.431
  324DIO    H1318137   7.397   5.778   8.525
  324DIO    H1418138   7.117   6.028   8.571
  324DIO    H1518139   7.041   5.873   8.539
  324DIO    H1618140   7.054   6.017   8.809
  324DIO    H1718141   6.915   5.999   8.703
  324DIO    H1818142   6.924   5.748   8.737
  324DIO    H1918143   7.055   5.773   8.855
  324DIO    H2018144   6.894   5.840   8.885
  325DIO     F118145   5.111   3.074   8.246
  325DIO     C118146   5.034   3.147   8.329
  325DIO     C218147   4.890   3.144   8.312
  325DIO     C318148   4.801   3.224   8.400
  325DIO     C418149   4.866   3.304   8.505
  325DIO     C518150   5.011   3.306   8.520
  325DIO     F218151   5.066   3.377   8.620
  325DIO     C618152   5.094   3.227   8.432
  325DIO     F318153   5.228   3.230   8.446
  325DIO     C718154   4.655   3.223   8.384
  325DIO     C818155   4.577   3.349   8.375
  325DIO     C918156   4.433   3.348   8.360
  325DIO    C1018157   4.360   3.222   8.363
  325DIO    C1118158   4.433   3.096   8.364
  325DIO    C1218159   4.577   3.097   8.376
  325DIO     F418160   4.642   2.979   8.382
  325DIO     O118161   4.228   3.227   8.324
  325DIO    C1318162   4.133   3.143   8.382
  325DIO     O218163   4.133   3.076   8.489
  325DIO    C1418164   4.004   3.147   8.313
  325DIO    C1518165   3.938   3.274   8.278
  325DIO     F518166   4.001   3.391   8.301
  325DIO    C1618167   3.807   3.280   8.215
  325DIO    C1718168   3.731   3.158   8.190
  325DIO    C1818169   3.800   3.030   8.208
  325DIO    C1918170   3.932   3.025   8.269
  325DIO     F618171   3.994   2.905   8.269
  325DIO    C2018172   3.591   3.162   8.136
  325DIO     O318173   3.521   3.284   8.166
  325DIO    C2118174   3.477   3.289   8.302
  325DIO    C2218175   3.388   3.170   8.335
  325DIO    C2318176   3.469   3.044   8.303
  325DIO     O418177   3.513   3.046   8.168
  325DIO    C2418178   3.256   3.169   8.256
  325DIO    C2518179   3.165   3.291   8.277
  325DIO    C2618180   3.127   3.316   8.422
  325DIO     H118181   4.847   3.081   8.234
  325DIO     H218182   4.806   3.357   8.578
  325DIO     H318183   4.629   3.444   8.374
  325DIO     H418184   4.378   3.440   8.345
  325DIO     H518185   4.378   3.003   8.360
  325DIO     H618186   3.769   3.376   8.184
  325DIO     H718187   3.757   2.938   8.171
  325DIO     H818188   3.600   3.162   8.027
  325DIO     H918189   3.564   3.293   8.368
  325DIO    H1018190   3.425   3.384   8.316
  325DIO    H1118191   3.366   3.171   8.443
  325DIO    H1218192   3.408   2.955   8.317
  325DIO    H1318193   3.555   3.035   8.370
  325DIO    H1418194   3.276   3.160   8.149
  325DIO    H1518195   3.199   3.079   8.285
  325DIO    H1618196   3.212   3.381   8.236
  325DIO    H1718197   3.073   3.276   8.219
  325DIO    H1818198   3.083   3.226   8.467
  325DIO    H1918199   3.213   3.346   8.482
  325DIO    H2018200   3.053   3.396   8.428
  326DIO     F118201   6.832   1.072   7.708
  326DIO     C118202   6.754   1.124   7.612
  326DIO     C218203   6.610   1.109   7.620
  326DIO     C318204   6.522   1.163   7.515
  326DIO     C418205   6.587   1.234   7.402
  326DIO     C518206   6.731   1.247   7.396
  326DIO     F218207   6.787   1.316   7.294
  326DIO     C618208   6.815   1.193   7.500
  326DIO     F318209   6.949   1.205   7.493
  326DIO     C718210   6.375   1.149   7.521
  326DIO     C818211   6.298   1.096   7.406
  326DIO     C918212   6.153   1.082   7.413
  326DIO    C1018213   6.081   1.129   7.529
  326DIO    C1118214   6.153   1.174   7.647
  326DIO    C1218215   6.297   1.185   7.641
  326DIO     F418216   6.362   1.232   7.750
  326DIO     O118217   5.949   1.091   7.538
  326DIO    C1318218   5.854   1.175   7.596
  326DIO     O218219   5.853   1.298   7.622
  326DIO    C1418220   5.725   1.109   7.617
  326DIO    C1518221   5.659   1.031   7.510
  326DIO     F518222   5.721   1.012   7.392
  326DIO    C1618223   5.528   0.971   7.527
  326DIO    C1718224   5.452   0.990   7.650
  326DIO    C1818225   5.521   1.051   7.763
  326DIO    C1918226   5.652   1.111   7.746
  326DIO     F618227   5.715   1.152   7.859
  326DIO    C2018228   5.311   0.937   7.664
  326DIO     O318229   5.242   0.924   7.540
  326DIO    C2118230   5.198   1.049   7.487
  326DIO    C2218231   5.109   1.122   7.587
  326DIO    C2318232   5.190   1.135   7.716
  326DIO     O418233   5.234   1.008   7.762
  326DIO    C2418234   4.976   1.048   7.616
  326DIO    C2518235   4.886   1.025   7.495
  326DIO    C2618236   4.847   1.152   7.421
  326DIO     H118237   6.568   1.058   7.706
  326DIO     H218238   6.526   1.284   7.328
  326DIO     H318239   6.350   1.063   7.317
  326DIO     H418240   6.098   1.037   7.332
  326DIO     H518241   6.099   1.204   7.735
  326DIO     H618242   5.490   0.908   7.447
  326DIO     H718243   5.478   1.049   7.862
  326DIO     H818244   5.321   0.835   7.703
  326DIO     H918245   5.285   1.110   7.461
  326DIO    H1018246   5.145   1.029   7.394
  326DIO    H1118247   5.087   1.222   7.549
  326DIO    H1218248   5.129   1.180   7.796
  326DIO    H1318249   5.276   1.202   7.702
  326DIO    H1418250   4.996   0.951   7.662
  326DIO    H1518251   4.920   1.106   7.690
  326DIO    H1618252   4.933   0.955   7.425
  326DIO    H1718253   4.794   0.975   7.529
  326DIO    H1818254   4.803   1.225   7.489
  326DIO    H1918255   4.934   1.198   7.372
  326DIO    H2018256   4.774   1.129   7.343
  327DIO     F118257   9.806   4.110   0.477
  327DIO     C118258   9.729   4.215   0.509
  327DIO     C218259   9.585   4.204   0.496
  327DIO     C318260   9.496   4.318   0.528
  327DIO     C418261   9.561   4.442   0.575
  327DIO     C518262   9.706   4.451   0.587
  327DIO     F218263   9.761   4.564   0.634
  327DIO     C618264   9.789   4.338   0.554
  327DIO     F318265   9.923   4.348   0.564
  327DIO     C718266   9.349   4.308   0.515
  327DIO     C818267   9.272   4.411   0.441
  327DIO     C918268   9.128   4.402   0.428
  327DIO    C1018269   9.055   4.297   0.498
  327DIO    C1118270   9.128   4.191   0.565
  327DIO    C1218271   9.272   4.198   0.575
  327DIO     F418272   9.337   4.101   0.643
  327DIO     O118273   8.923   4.281   0.462
  327DIO    C1318274   8.828   4.240   0.556
  327DIO     O218275   8.827   4.240   0.682
  327DIO    C1418276   8.699   4.206   0.495
  327DIO    C1518277   8.633   4.296   0.398
  327DIO     F518278   8.696   4.408   0.355
  327DIO    C1618279   8.502   4.268   0.342
  327DIO    C1718280   8.426   4.151   0.385
  327DIO    C1818281   8.495   4.052   0.468
  327DIO    C1918282   8.627   4.080   0.523
  327DIO     F618283   8.689   3.979   0.586
  327DIO    C2018284   8.286   4.126   0.337
  327DIO     O318285   8.216   4.245   0.298
  327DIO    C2118286   8.172   4.322   0.410
  327DIO    C2218287   8.083   4.238   0.502
  327DIO    C2318288   8.164   4.115   0.541
  327DIO     O418289   8.208   4.045   0.425
  327DIO    C2418290   7.951   4.196   0.435
  327DIO    C2518291   7.860   4.310   0.388
  327DIO    C2618292   7.821   4.408   0.498
  327DIO     H118293   9.542   4.110   0.463
  327DIO     H218294   9.501   4.525   0.609
  327DIO     H318295   9.324   4.491   0.390
  327DIO     H418296   9.073   4.472   0.367
  327DIO     H518297   9.073   4.110   0.612
  327DIO     H618298   8.464   4.333   0.264
  327DIO     H718299   8.452   3.955   0.485
  327DIO     H818300   8.295   4.068   0.244
  327DIO     H918301   8.259   4.360   0.465
  327DIO    H1018302   8.119   4.410   0.372
  327DIO    H1118303   8.061   4.296   0.593
  327DIO    H1218304   8.103   4.046   0.600
  327DIO    H1318305   8.250   4.142   0.603
  327DIO    H1418306   7.970   4.131   0.349
  327DIO    H1518307   7.894   4.135   0.507
  327DIO    H1618308   7.907   4.365   0.306
  327DIO    H1718309   7.768   4.266   0.347
  327DIO    H1818310   7.778   4.355   0.584
  327DIO    H1918311   7.908   4.465   0.533
  327DIO    H2018312   7.748   4.479   0.461
  328DIO     F118313   5.860   1.378   8.731
  328DIO     C118314   5.782   1.275   8.769
  328DIO     C218315   5.638   1.292   8.772
  328DIO     C318316   5.549   1.181   8.816
  328DIO     C418317   5.615   1.054   8.853
  328DIO     C518318   5.759   1.040   8.849
  328DIO     F218319   5.814   0.921   8.880
  328DIO     C618320   5.843   1.149   8.807
  328DIO     F318321   5.976   1.135   8.805
  328DIO     C718322   5.403   1.197   8.821
  328DIO     C818323   5.326   1.159   8.941
  328DIO     C918324   5.181   1.174   8.946
  328DIO    C1018325   5.108   1.216   8.828
  328DIO    C1118326   5.181   1.261   8.710
  328DIO    C1218327   5.325   1.248   8.706
  328DIO     F418328   5.390   1.285   8.594
  328DIO     O118329   4.976   1.251   8.846
  328DIO    C1318330   4.882   1.226   8.747
  328DIO     O218331   4.881   1.151   8.646
  328DIO    C1418332   4.752   1.290   8.775
  328DIO    C1518333   4.686   1.277   8.907
  328DIO     F518334   4.749   1.213   9.008
  328DIO    C1618335   4.555   1.333   8.935
  328DIO    C1718336   4.480   1.400   8.829
  328DIO    C1818337   4.548   1.429   8.704
  328DIO    C1918338   4.680   1.374   8.677
  328DIO     F618339   4.742   1.417   8.565
  328DIO    C2018340   4.339   1.449   8.853
  328DIO     O318341   4.269   1.377   8.956
  328DIO    C2118342   4.225   1.249   8.912
  328DIO    C2218343   4.137   1.260   8.789
  328DIO    C2318344   4.217   1.336   8.683
  328DIO     O418345   4.262   1.461   8.733
  328DIO    C2418346   4.004   1.334   8.816
  328DIO    C2518347   3.913   1.272   8.923
  328DIO    C2618348   3.875   1.127   8.894
  328DIO     H118349   5.595   1.387   8.743
  328DIO     H218350   5.554   0.967   8.876
  328DIO     H318351   5.377   1.126   9.030
  328DIO     H418352   5.126   1.155   9.037
  328DIO     H518353   5.126   1.297   8.624
  328DIO     H618354   4.517   1.328   9.036
  328DIO     H718355   4.505   1.497   8.631
  328DIO     H818356   4.349   1.552   8.892
  328DIO     H918357   4.312   1.185   8.892
  328DIO    H1018358   4.173   1.202   8.996
  328DIO    H1118359   4.114   1.160   8.751
  328DIO    H1218360   4.156   1.355   8.594
  328DIO    H1318361   4.303   1.276   8.650
  328DIO    H1418362   4.024   1.438   8.846
  328DIO    H1518363   3.947   1.340   8.722
  328DIO    H1618364   3.960   1.278   9.021
  328DIO    H1718365   3.821   1.331   8.929
  328DIO    H1818366   3.831   1.118   8.794
  328DIO    H1918367   3.961   1.061   8.900
  328DIO    H2018368   3.801   1.093   8.967
  329DIO     F118369   6.335   4.484   4.243
  329DIO     C118370   6.257   4.417   4.330
  329DIO     C218371   6.113   4.433   4.324
  329DIO     C318372   6.024   4.363   4.420
  329DIO     C418373   6.090   4.275   4.519
  329DIO     C518374   6.234   4.261   4.523
  329DIO     F218375   6.290   4.176   4.613
  329DIO     C618376   6.318   4.331   4.429
  329DIO     F318377   6.452   4.318   4.435
  329DIO     C718378   5.878   4.378   4.415
  329DIO     C818379   5.801   4.411   4.537
  329DIO     C918380   5.656   4.426   4.534
  329DIO    C1018381   5.584   4.398   4.411
  329DIO    C1118382   5.656   4.373   4.288
  329DIO    C1218383   5.800   4.361   4.291
  329DIO     F418384   5.865   4.332   4.176
  329DIO     O118385   5.451   4.437   4.408
  329DIO    C1318386   5.357   4.364   4.337
  329DIO     O218387   5.356   4.246   4.293
  329DIO    C1418388   5.228   4.433   4.327
  329DIO    C1518389   5.162   4.492   4.445
  329DIO     F518390   5.224   4.492   4.565
  329DIO    C1618391   5.031   4.554   4.439
  329DIO    C1718392   4.955   4.555   4.314
  329DIO    C1818393   5.024   4.513   4.193
  329DIO    C1918394   5.155   4.451   4.199
  329DIO     F618395   5.218   4.428   4.082
  329DIO    C2018396   4.814   4.609   4.308
  329DIO     O318397   4.745   4.603   4.433
  329DIO    C2118398   4.701   4.471   4.465
  329DIO    C2218399   4.612   4.415   4.355
  329DIO    C2318400   4.693   4.422   4.225
  329DIO     O418401   4.737   4.555   4.200
  329DIO    C2418402   4.479   4.492   4.338
  329DIO    C2518403   4.389   4.496   4.462
  329DIO    C2618404   4.350   4.359   4.514
  329DIO     H118405   6.071   4.497   4.248
  329DIO     H218406   6.029   4.213   4.585
  329DIO     H318407   5.852   4.430   4.631
  329DIO     H418408   5.601   4.458   4.621
  329DIO     H518409   5.602   4.358   4.195
  329DIO     H618410   4.993   4.604   4.527
  329DIO     H718411   4.981   4.531   4.095
  329DIO     H818412   4.824   4.716   4.286
  329DIO     H918413   4.788   4.406   4.481
  329DIO    H1018414   4.648   4.476   4.561
  329DIO    H1118415   4.589   4.310   4.376
  329DIO    H1218416   4.632   4.391   4.140
  329DIO    H1318417   4.779   4.354   4.229
  329DIO    H1418418   4.499   4.596   4.308
  329DIO    H1518419   4.423   4.447   4.256
  329DIO    H1618420   4.436   4.554   4.542
  329DIO    H1718421   4.297   4.550   4.435
  329DIO    H1818422   4.306   4.297   4.435
  329DIO    H1918423   4.437   4.306   4.555
  329DIO    H2018424   4.276   4.368   4.595
  330DIO     F118425   4.917   5.344   3.783
  330DIO     C118426   4.839   5.246   3.833
  330DIO     C218427   4.695   5.263   3.834
  330DIO     C318428   4.606   5.158   3.890
  330DIO     C418429   4.672   5.036   3.943
  330DIO     C518430   4.816   5.022   3.941
  330DIO     F218431   4.871   4.908   3.986
  330DIO     C618432   4.900   5.126   3.886
  330DIO     F318433   5.033   5.112   3.885
  330DIO     C718434   4.460   5.174   3.893
  330DIO     C818435   4.383   5.152   4.018
  330DIO     C918436   4.238   5.167   4.021
  330DIO    C1018437   4.165   5.194   3.898
  330DIO    C1118438   4.238   5.224   3.776
  330DIO    C1218439   4.382   5.212   3.774
  330DIO     F418440   4.447   5.235   3.658
  330DIO     O118441   4.033   5.231   3.912
  330DIO    C1318442   3.939   5.195   3.817
  330DIO     O218443   3.938   5.107   3.726
  330DIO    C1418444   3.810   5.262   3.837
  330DIO    C1518445   3.743   5.264   3.969
  330DIO     F518446   3.806   5.214   4.077
  330DIO    C1618447   3.612   5.324   3.990
  330DIO    C1718448   3.537   5.377   3.877
  330DIO    C1818449   3.605   5.391   3.749
  330DIO    C1918450   3.737   5.333   3.729
  330DIO     F618451   3.800   5.362   3.613
  330DIO    C2018452   3.396   5.429   3.895
  330DIO     O318453   3.326   5.370   4.005
  330DIO    C2118454   3.283   5.237   3.978
  330DIO    C2218455   3.194   5.234   3.854
  330DIO    C2318456   3.274   5.296   3.740
  330DIO     O418457   3.319   5.426   3.775
  330DIO    C2418458   3.061   5.310   3.872
  330DIO    C2518459   2.970   5.261   3.986
  330DIO    C2618460   2.932   5.114   3.974
  330DIO     H118461   4.652   5.353   3.793
  330DIO     H218462   4.611   4.953   3.976
  330DIO     H318463   4.434   5.129   4.110
  330DIO     H418464   4.183   5.159   4.113
  330DIO     H518465   4.183   5.250   3.686
  330DIO     H618466   3.574   5.331   4.091
  330DIO     H718467   3.563   5.449   3.669
  330DIO     H818468   3.406   5.535   3.921
  330DIO     H918469   3.369   5.172   3.965
  330DIO    H1018470   3.230   5.201   4.066
  330DIO    H1118471   3.171   5.130   3.829
  330DIO    H1218472   3.213   5.304   3.650
  330DIO    H1318473   3.361   5.233   3.715
  330DIO    H1418474   3.081   5.417   3.889
  330DIO    H1518475   3.004   5.304   3.778
  330DIO    H1618476   3.018   5.279   4.083
  330DIO    H1718477   2.878   5.321   3.985
  330DIO    H1818478   2.888   5.093   3.877
  330DIO    H1918479   3.018   5.049   3.989
  330DIO    H2018480   2.858   5.089   4.051
  331DIO     F118481   6.215   0.277   8.643
  331DIO     C118482   6.138   0.253   8.535
  331DIO     C218483   5.994   0.248   8.551
  331DIO     C318484   5.905   0.219   8.436
  331DIO     C418485   5.970   0.200   8.305
  331DIO     C518486   6.115   0.205   8.291
  331DIO     F218487   6.170   0.191   8.169
  331DIO     C618488   6.198   0.232   8.406
  331DIO     F318489   6.332   0.236   8.392
  331DIO     C718490   5.758   0.213   8.451
  331DIO     C818491   5.681   0.098   8.398
  331DIO     C918492   5.537   0.091   8.412
  331DIO    C1018493   5.464   0.203   8.469
  331DIO    C1118494   5.537   0.314   8.529
  331DIO    C1218495   5.681   0.319   8.517
  331DIO     F418496   5.746   0.425   8.569
  331DIO     O118497   5.332   0.180   8.501
  331DIO    C1318498   5.237   0.282   8.490
  331DIO     O218499   5.236   0.392   8.429
  331DIO    C1418500   5.108   0.245   8.549
  331DIO    C1518501   5.042   0.117   8.519
  331DIO     F518502   5.105   0.025   8.442
  331DIO    C1618503   4.911   0.081   8.571
  331DIO    C1718504   4.835   0.177   8.651
  331DIO    C1818505   4.904   0.297   8.697
  331DIO    C1918506   5.036   0.331   8.646
  331DIO     F618507   5.098   0.436   8.703
  331DIO    C2018508   4.695   0.146   8.697
  331DIO     O318509   4.625   0.055   8.612
  331DIO    C2118510   4.581   0.115   8.490
  331DIO    C2218511   4.492   0.236   8.518
  331DIO    C2318512   4.573   0.330   8.607
  331DIO     O418513   4.617   0.264   8.725
  331DIO    C2418514   4.360   0.198   8.588
  331DIO    C2518515   4.269   0.101   8.511
  331DIO    C2618516   4.230   0.149   8.372
  331DIO     H118517   5.951   0.265   8.649
  331DIO     H218518   5.910   0.188   8.215
  331DIO     H318519   5.733   0.014   8.352
  331DIO     H418520   5.482   0.004   8.380
  331DIO     H518521   5.482   0.394   8.577
  331DIO     H618522   4.873  -0.018   8.552
  331DIO     H718523   4.861   0.360   8.774
  331DIO     H818524   4.704   0.094   8.793
  331DIO     H918525   4.668   0.144   8.430
  331DIO    H1018526   4.528   0.039   8.432
  331DIO    H1118527   4.470   0.287   8.424
  331DIO    H1218528   4.512   0.416   8.638
  331DIO    H1318529   4.659   0.371   8.553
  331DIO    H1418530   4.379   0.155   8.687
  331DIO    H1518531   4.303   0.291   8.606
  331DIO    H1618532   4.316   0.003   8.504
  331DIO    H1718533   4.177   0.087   8.570
  331DIO    H1818534   4.187   0.250   8.376
  331DIO    H1918535   4.317   0.152   8.305
  331DIO    H2018536   4.157   0.082   8.328
  332DIO     F118537   3.215   2.393   6.655
  332DIO     C118538   3.138   2.379   6.764
  332DIO     C218539   2.994   2.390   6.751
  332DIO     C318540   2.905   2.378   6.868
  332DIO     C418541   2.970   2.353   6.999
  332DIO     C518542   3.115   2.343   7.010
  332DIO     F218543   3.170   2.316   7.130
  332DIO     C618544   3.198   2.355   6.893
  332DIO     F318545   3.332   2.347   6.904
  332DIO     C718546   2.759   2.389   6.857
  332DIO     C818547   2.681   2.479   6.945
  332DIO     C918548   2.537   2.490   6.934
  332DIO    C1018549   2.464   2.404   6.843
  332DIO    C1118550   2.537   2.320   6.750
  332DIO    C1218551   2.681   2.311   6.759
  332DIO     F418552   2.746   2.228   6.675
  332DIO     O118553   2.332   2.436   6.821
  332DIO    C1318554   2.237   2.337   6.797
  332DIO     O218555   2.237   2.213   6.818
  332DIO    C1418556   2.108   2.391   6.753
  332DIO    C1518557   2.042   2.502   6.825
  332DIO     F518558   2.105   2.563   6.928
  332DIO    C1618559   1.911   2.553   6.787
  332DIO    C1718560   1.835   2.490   6.680
  332DIO    C1818561   1.904   2.392   6.597
  332DIO    C1918562   2.036   2.342   6.634
  332DIO     F618563   2.098   2.263   6.544
  332DIO    C2018564   1.695   2.534   6.647
  332DIO     O318565   1.625   2.592   6.758
  332DIO    C2118566   1.581   2.494   6.852
  332DIO    C2218567   1.492   2.390   6.786
  332DIO    C2318568   1.573   2.330   6.671
  332DIO     O418569   1.617   2.432   6.582
  332DIO    C2418570   1.360   2.448   6.733
  332DIO    C2518571   1.269   2.514   6.837
  332DIO    C2618572   1.231   2.422   6.952
  332DIO     H118573   2.951   2.406   6.652
  332DIO     H218574   2.910   2.333   7.087
  332DIO     H318575   2.733   2.543   7.016
  332DIO     H418576   2.482   2.562   6.993
  332DIO     H518577   2.482   2.260   6.678
  332DIO     H618578   1.873   2.640   6.839
  332DIO     H718579   1.861   2.358   6.503
  332DIO     H818580   1.704   2.615   6.574
  332DIO     H918581   1.668   2.447   6.899
  332DIO    H1018582   1.529   2.547   6.932
  332DIO    H1118583   1.470   2.310   6.858
  332DIO    H1218584   1.512   2.260   6.613
  332DIO    H1318585   1.659   2.274   6.708
  332DIO    H1418586   1.380   2.522   6.654
  332DIO    H1518587   1.303   2.367   6.685
  332DIO    H1618588   1.316   2.605   6.877
  332DIO    H1718589   1.177   2.547   6.787
  332DIO    H1818590   1.187   2.329   6.915
  332DIO    H1918591   1.317   2.398   7.014
  332DIO    H2018592   1.157   2.472   7.016
  333DIO     F118593   2.983   9.158   3.185
  333DIO     C118594   2.906   9.232   3.103
  333DIO     C218595   2.762   9.216   3.108
  333DIO     C318596   2.673   9.294   3.019
  333DIO     C418597   2.738   9.389   2.927
  333DIO     C518598   2.883   9.404   2.923
  333DIO     F218599   2.938   9.495   2.841
  333DIO     C618600   2.966   9.326   3.012
  333DIO     F318601   3.100   9.339   3.007
  333DIO     C718602   2.526   9.278   3.022
  333DIO     C818603   2.449   9.255   2.897
  333DIO     C918604   2.305   9.240   2.900
  333DIO    C1018605   2.232   9.257   3.024
  333DIO    C1118606   2.305   9.273   3.149
  333DIO    C1218607   2.449   9.285   3.147
  333DIO     F418608   2.514   9.305   3.264
  333DIO     O118609   2.100   9.218   3.024
  333DIO    C1318610   2.005   9.286   3.101
  333DIO     O218611   2.004   9.399   3.155
  333DIO    C1418612   1.876   9.216   3.105
  333DIO    C1518613   1.810   9.167   2.983
  333DIO     F518614   1.873   9.176   2.863
  333DIO    C1618615   1.679   9.104   2.984
  333DIO    C1718616   1.603   9.094   3.108
  333DIO    C1818617   1.672   9.126   3.233
  333DIO    C1918618   1.804   9.187   3.231
  333DIO     F618619   1.866   9.201   3.350
  333DIO    C2018620   1.463   9.039   3.110
  333DIO     O318621   1.393   9.055   2.986
  333DIO    C2118622   1.349   9.189   2.965
  333DIO    C2218623   1.260   9.236   3.079
  333DIO    C2318624   1.341   9.218   3.208
  333DIO     O418625   1.385   9.084   3.222
  333DIO    C2418626   1.128   9.158   3.089
  333DIO    C2518627   1.037   9.164   2.966
  333DIO    C2618628   0.998   9.305   2.925
  333DIO     H118629   2.719   9.146   3.179
  333DIO     H218630   2.678   9.456   2.866
  333DIO     H318631   2.501   9.243   2.803
  333DIO     H418632   2.250   9.214   2.811
  333DIO     H518633   2.250   9.280   3.243
  333DIO     H618634   1.641   9.062   2.892
  333DIO     H718635   1.629   9.100   3.329
  333DIO     H818636   1.472   8.930   3.123
  333DIO     H918637   1.436   9.255   2.954
  333DIO    H1018638   1.296   9.192   2.869
  333DIO    H1118639   1.238   9.343   3.066
  333DIO    H1218640   1.280   9.243   3.295
  333DIO    H1318641   1.427   9.286   3.210
  333DIO    H1418642   1.147   9.052   3.111
  333DIO    H1518643   1.071   9.197   3.175
  333DIO    H1618644   1.084   9.113   2.881
  333DIO    H1718645   0.945   9.108   2.988
  333DIO    H1818646   0.955   9.360   3.009
  333DIO    H1918647   1.085   9.361   2.888
  333DIO    H2018648   0.925   9.302   2.844
  334DIO     F118649   4.905   9.159   4.315
  334DIO     C118650   4.827   9.266   4.288
  334DIO     C218651   4.683   9.250   4.283
  334DIO     C318652   4.594   9.364   4.251
  334DIO     C418653   4.660   9.495   4.227
  334DIO     C518654   4.804   9.508   4.233
  334DIO     F218655   4.859   9.630   4.215
  334DIO     C618656   4.888   9.395   4.263
  334DIO     F318657   5.021   9.409   4.267
  334DIO     C718658   4.448   9.349   4.245
  334DIO     C818659   4.371   9.399   4.129
  334DIO     C918660   4.226   9.385   4.122
  334DIO    C1018661   4.153   9.331   4.236
  334DIO    C1118662   4.226   9.274   4.348
  334DIO    C1218663   4.370   9.286   4.353
  334DIO     F418664   4.435   9.237   4.461
  334DIO     O118665   4.021   9.298   4.214
  334DIO    C1318666   3.927   9.312   4.315
  334DIO     O218667   3.926   9.377   4.423
  334DIO    C1418668   3.798   9.251   4.280
  334DIO    C1518669   3.731   9.278   4.151
  334DIO     F518670   3.794   9.352   4.057
  334DIO    C1618671   3.600   9.225   4.117
  334DIO    C1718672   3.525   9.148   4.215
  334DIO    C1818673   3.593   9.106   4.336
  334DIO    C1918674   3.725   9.158   4.369
  334DIO     F618675   3.788   9.103   4.476
  334DIO    C2018676   3.384   9.101   4.186
  334DIO     O318677   3.314   9.184   4.092
  334DIO    C2118678   3.271   9.307   4.148
  334DIO    C2218679   3.182   9.283   4.270
  334DIO    C2318680   3.262   9.197   4.367
  334DIO     O418681   3.307   9.077   4.304
  334DIO    C2418682   3.049   9.212   4.235
  334DIO    C2518683   2.958   9.285   4.135
  334DIO    C2618684   2.920   9.426   4.179
  334DIO     H118685   4.640   9.152   4.303
  334DIO     H218686   4.599   9.584   4.214
  334DIO     H318687   4.422   9.442   4.044
  334DIO     H418688   4.171   9.413   4.034
  334DIO     H518689   4.171   9.229   4.430
  334DIO     H618690   3.562   9.241   4.017
  334DIO     H718691   3.551   9.031   4.402
  334DIO     H818692   3.394   9.004   4.137
  334DIO     H918693   3.357   9.368   4.175
  334DIO    H1018694   3.218   9.362   4.070
  334DIO    H1118695   3.159   9.378   4.318
  334DIO    H1218696   3.201   9.168   4.453
  334DIO    H1318697   3.349   9.252   4.406
  334DIO    H1418698   3.069   9.112   4.194
  334DIO    H1518699   2.992   9.196   4.328
  334DIO    H1618700   3.006   9.289   4.037
  334DIO    H1718701   2.866   9.226   4.123
  334DIO    H1818702   2.876   9.425   4.280
  334DIO    H1918703   3.006   9.493   4.180
  334DIO    H2018704   2.846   9.468   4.110
  335DIO     F118705   3.624   8.537   4.457
  335DIO     C118706   3.546   8.428   4.468
  335DIO     C218707   3.402   8.443   4.475
  335DIO     C318708   3.313   8.326   4.489
  335DIO     C418709   3.379   8.193   4.493
  335DIO     C518710   3.523   8.180   4.486
  335DIO     F218711   3.579   8.057   4.485
  335DIO     C618712   3.607   8.297   4.473
  335DIO     F318713   3.741   8.284   4.467
  335DIO     C718714   3.167   8.339   4.498
  335DIO     C818715   3.090   8.273   4.605
  335DIO     C918716   2.945   8.286   4.613
  335DIO    C1018717   2.873   8.356   4.509
  335DIO    C1118718   2.945   8.429   4.407
  335DIO    C1218719   3.089   8.418   4.400
  335DIO     F418720   3.154   8.482   4.301
  335DIO     O118721   2.740   8.385   4.536
  335DIO    C1318722   2.646   8.387   4.434
  335DIO     O218723   2.645   8.339   4.317
  335DIO    C1418724   2.517   8.441   4.477
  335DIO    C1518725   2.451   8.395   4.601
  335DIO     F518726   2.513   8.308   4.683
  335DIO    C1618727   2.320   8.443   4.643
  335DIO    C1718728   2.244   8.534   4.558
  335DIO    C1818729   2.313   8.594   4.444
  335DIO    C1918730   2.444   8.547   4.404
  335DIO     F618731   2.507   8.617   4.306
  335DIO    C2018732   2.103   8.576   4.593
  335DIO     O318733   2.034   8.480   4.674
  335DIO    C2118734   1.990   8.367   4.600
  335DIO    C2218735   1.901   8.409   4.483
  335DIO    C2318736   1.982   8.509   4.400
  335DIO     O418737   2.026   8.618   4.480
  335DIO    C2418738   1.768   8.474   4.528
  335DIO    C2518739   1.678   8.386   4.616
  335DIO    C2618740   1.639   8.254   4.551
  335DIO     H118741   3.360   8.543   4.470
  335DIO     H218742   3.318   8.103   4.493
  335DIO     H318743   3.141   8.218   4.683
  335DIO     H418744   2.890   8.244   4.697
  335DIO     H518745   2.891   8.486   4.333
  335DIO     H618746   2.282   8.412   4.739
  335DIO     H718747   2.270   8.678   4.391
  335DIO     H818748   2.113   8.665   4.656
  335DIO     H918749   2.077   8.311   4.563
  335DIO    H1018750   1.937   8.300   4.668
  335DIO    H1118751   1.878   8.322   4.421
  335DIO    H1218752   1.921   8.550   4.319
  335DIO    H1318753   2.068   8.460   4.353
  335DIO    H1418754   1.788   8.567   4.583
  335DIO    H1518755   1.712   8.503   4.439
  335DIO    H1618756   1.725   8.367   4.712
  335DIO    H1718757   1.586   8.442   4.637
  335DIO    H1818758   1.595   8.270   4.452
  335DIO    H1918759   1.726   8.188   4.540
  335DIO    H2018760   1.565   8.202   4.613
  336DIO     F118761   2.537   4.956   8.281
  336DIO     C118762   2.459   4.867   8.347
  336DIO     C218763   2.315   4.884   8.345
  336DIO     C318764   2.226   4.790   8.417
  336DIO     C418765   2.292   4.678   8.489
  336DIO     C518766   2.436   4.664   8.489
  336DIO     F218767   2.492   4.558   8.552
  336DIO     C618768   2.520   4.757   8.418
  336DIO     F318769   2.654   4.743   8.420
  336DIO     C718770   2.080   4.806   8.418
  336DIO     C818771   2.003   4.805   8.544
  336DIO     C918772   1.858   4.820   8.544
  336DIO    C1018773   1.786   4.827   8.419
  336DIO    C1118774   1.858   4.837   8.293
  336DIO    C1218775   2.002   4.824   8.293
  336DIO     F418776   2.067   4.828   8.175
  336DIO     O118777   1.653   4.865   8.427
  336DIO    C1318778   1.559   4.814   8.339
  336DIO     O218779   1.558   4.714   8.263
  336DIO    C1418780   1.430   4.883   8.348
  336DIO    C1518781   1.363   4.908   8.478
  336DIO     F518782   1.426   4.875   8.593
  336DIO    C1618783   1.233   4.970   8.489
  336DIO    C1718784   1.157   5.004   8.369
  336DIO    C1818785   1.226   4.997   8.241
  336DIO    C1918786   1.357   4.937   8.230
  336DIO     F618787   1.420   4.947   8.111
  336DIO    C2018788   1.016   5.058   8.378
  336DIO     O318789   0.946   5.018   8.497
  336DIO    C2118790   0.903   4.882   8.491
  336DIO    C2218791   0.814   4.859   8.369
  336DIO    C2318792   0.895   4.901   8.247
  336DIO     O418793   0.939   5.036   8.260
  336DIO    C2418794   0.681   4.938   8.375
  336DIO    C2518795   0.590   4.907   8.495
  336DIO    C2618796   0.552   4.761   8.507
  336DIO     H118797   2.273   4.967   8.290
  336DIO     H218798   2.231   4.601   8.535
  336DIO     H318799   2.054   4.797   8.639
  336DIO     H418800   1.803   4.827   8.637
  336DIO     H518801   1.804   4.848   8.201
  336DIO     H618802   1.195   4.993   8.588
  336DIO     H718803   1.183   5.042   8.152
  336DIO     H818804   1.026   5.167   8.387
  336DIO     H918805   0.989   4.816   8.489
  336DIO    H1018806   0.850   4.860   8.584
  336DIO    H1118807   0.791   4.752   8.361
  336DIO    H1218808   0.834   4.895   8.156
  336DIO    H1318809   0.981   4.835   8.232
  336DIO    H1418810   0.701   5.045   8.374
  336DIO    H1518811   0.625   4.917   8.283
  336DIO    H1618812   0.638   4.941   8.588
  336DIO    H1718813   0.499   4.966   8.484
  336DIO    H1818814   0.508   4.723   8.414
  336DIO    H1918815   0.639   4.698   8.532
  336DIO    H2018816   0.478   4.748   8.587
  337DIO     F118817   9.955   3.565   9.823
  337DIO     C118818   9.877   3.457   9.799
  337DIO     C218819   9.733   3.470   9.810
  337DIO     C318820   9.644   3.353   9.787
  337DIO     C418821   9.710   3.226   9.749
  337DIO     C518822   9.854   3.216   9.738
  337DIO     F218823   9.910   3.100   9.700
  337DIO     C618824   9.938   3.331   9.762
  337DIO     F318825  10.072   3.321   9.753
  337DIO     C718826   9.498   3.364   9.799
  337DIO     C818827   9.421   3.267   9.881
  337DIO     C918828   9.276   3.277   9.892
  337DIO    C1018829   9.204   3.376   9.816
  337DIO    C1118830   9.276   3.477   9.741
  337DIO    C1218831   9.420   3.469   9.731
  337DIO     F418832   9.485   3.561   9.657
  337DIO     O118833   9.071   3.395   9.850
  337DIO    C1318834   8.977   3.429   9.753
  337DIO     O218835   8.976   3.420   9.628
  337DIO    C1418836   8.848   3.467   9.812
  337DIO    C1518837   8.781   3.384   9.915
  337DIO     F518838   8.844   3.276   9.966
  337DIO    C1618839   8.651   3.417   9.969
  337DIO    C1718840   8.575   3.530   9.917
  337DIO    C1818841   8.644   3.622   9.827
  337DIO    C1918842   8.775   3.591   9.775
  337DIO     F618843   8.838   3.687   9.704
  337DIO    C2018844   8.434   3.558   9.964
  337DIO     O318845   8.364   3.442  10.011
  337DIO    C2118846   8.321   3.358   9.905
  337DIO    C2218847   8.232   3.434   9.807
  337DIO    C2318848   8.313   3.555   9.759
  337DIO     O418849   8.357   3.633   9.870
  337DIO    C2418850   8.099   3.482   9.870
  337DIO    C2518851   8.008   3.371   9.926
  337DIO    C2618852   7.970   3.266   9.823
  337DIO     H118853   9.691   3.566   9.837
  337DIO     H218854   9.649   3.140   9.721
  337DIO     H318855   9.472   3.190   9.937
  337DIO     H418856   9.221   3.211   9.959
  337DIO     H518857   9.222   3.555   9.688
  337DIO     H618858   8.613   3.357  10.051
  337DIO     H718859   8.601   3.719   9.803
  337DIO     H818860   8.444   3.623  10.052
  337DIO     H918861   8.407   3.316   9.853
  337DIO    H1018862   8.268   3.273   9.949
  337DIO    H1118863   8.209   3.371   9.721
  337DIO    H1218864   8.252   3.619   9.695
  337DIO    H1318865   8.399   3.523   9.699
  337DIO    H1418866   8.119   3.553   9.952
  337DIO    H1518867   8.043   3.537   9.794
  337DIO    H1618868   8.056   3.323  10.012
  337DIO    H1718869   7.917   3.418   9.964
  337DIO    H1818870   7.926   3.312   9.734
  337DIO    H1918871   8.057   3.206   9.793
  337DIO    H2018872   7.896   3.197   9.866
  338DIO     F118873   8.517   3.988   3.038
  338DIO     C118874   8.440   4.087   2.989
  338DIO     C218875   8.295   4.070   2.988
  338DIO     C318876   8.207   4.176   2.934
  338DIO     C418877   8.272   4.299   2.884
  338DIO     C518878   8.416   4.313   2.887
  338DIO     F218879   8.472   4.429   2.844
  338DIO     C618880   8.500   4.208   2.939
  338DIO     F318881   8.634   4.223   2.940
  338DIO     C718882   8.060   4.160   2.931
  338DIO     C818883   7.983   4.185   2.807
  338DIO     C918884   7.838   4.170   2.804
  338DIO    C1018885   7.766   4.140   2.926
  338DIO    C1118886   7.838   4.107   3.047
  338DIO    C1218887   7.982   4.120   3.050
  338DIO     F418888   8.047   4.095   3.165
  338DIO     O118889   7.634   4.104   2.911
  338DIO    C1318890   7.539   4.138   3.007
  338DIO     O218891   7.538   4.223   3.100
  338DIO    C1418892   7.410   4.072   2.985
  338DIO    C1518893   7.344   4.071   2.853
  338DIO     F518894   7.406   4.125   2.746
  338DIO    C1618895   7.213   4.013   2.831
  338DIO    C1718896   7.137   3.957   2.942
  338DIO    C1818897   7.206   3.940   3.070
  338DIO    C1918898   7.338   3.998   3.091
  338DIO     F618899   7.400   3.966   3.207
  338DIO    C2018900   6.996   3.905   2.923
  338DIO     O318901   6.927   3.967   2.815
  338DIO    C2118902   6.883   4.099   2.845
  338DIO    C2218903   6.794   4.100   2.969
  338DIO    C2318904   6.875   4.035   3.081
  338DIO     O418905   6.919   3.905   3.044
  338DIO    C2418906   6.661   4.023   2.949
  338DIO    C2518907   6.571   4.075   2.837
  338DIO    C2618908   6.532   4.222   2.851
  338DIO     H118909   8.253   3.979   3.027
  338DIO     H218910   8.212   4.383   2.853
  338DIO     H318911   8.035   4.210   2.715
  338DIO     H418912   7.783   4.180   2.711
  338DIO     H518913   7.784   4.080   3.137
  338DIO     H618914   7.175   4.008   2.730
  338DIO     H718915   7.163   3.880   3.149
  338DIO     H818916   7.006   3.800   2.895
  338DIO     H918917   6.970   4.164   2.859
  338DIO    H1018918   6.830   4.137   2.757
  338DIO    H1118919   6.772   4.203   2.996
  338DIO    H1218920   6.814   4.025   3.172
  338DIO    H1318921   6.961   4.098   3.108
  338DIO    H1418922   6.681   3.917   2.930
  338DIO    H1518923   6.605   4.027   3.043
  338DIO    H1618924   6.618   4.059   2.739
  338DIO    H1718925   6.479   4.015   2.836
  338DIO    H1818926   6.488   4.241   2.949
  338DIO    H1918927   6.619   4.287   2.838
  338DIO    H2018928   6.459   4.249   2.775
  339DIO     F118929   2.172   3.595   8.269
  339DIO     C118930   2.094   3.625   8.375
  339DIO     C218931   1.950   3.630   8.358
  339DIO     C318932   1.861   3.664   8.472
  339DIO     C418933   1.927   3.692   8.602
  339DIO     C518934   2.071   3.687   8.615
  339DIO     F218935   2.127   3.708   8.736
  339DIO     C618936   2.155   3.653   8.503
  339DIO     F318937   2.289   3.650   8.517
  339DIO     C718938   1.715   3.670   8.457
  339DIO     C818939   1.638   3.788   8.503
  339DIO     C918940   1.493   3.794   8.489
  339DIO    C1018941   1.421   3.679   8.438
  339DIO    C1118942   1.493   3.565   8.384
  339DIO    C1218943   1.637   3.560   8.396
  339DIO     F418944   1.702   3.451   8.351
  339DIO     O118945   1.288   3.700   8.405
  339DIO    C1318946   1.194   3.599   8.421
  339DIO     O218947   1.193   3.493   8.489
  339DIO    C1418948   1.065   3.632   8.360
  339DIO    C1518949   0.998   3.762   8.383
  339DIO     F518950   1.061   3.858   8.455
  339DIO    C1618951   0.868   3.794   8.329
  339DIO    C1718952   0.792   3.695   8.254
  339DIO    C1818953   0.861   3.572   8.216
  339DIO    C1918954   0.992   3.541   8.269
  339DIO     F618955   1.055   3.433   8.217
  339DIO    C2018956   0.651   3.722   8.207
  339DIO     O318957   0.581   3.819   8.287
  339DIO    C2118958   0.538   3.766   8.412
  339DIO    C2218959   0.449   3.644   8.391
  339DIO    C2318960   0.530   3.544   8.308
  339DIO     O418961   0.574   3.604   8.186
  339DIO    C2418962   0.316   3.677   8.319
  339DIO    C2518963   0.225   3.778   8.390
  339DIO    C2618964   0.187   3.738   8.531
  339DIO     H118965   1.908   3.607   8.261
  339DIO     H218966   1.866   3.708   8.690
  339DIO     H318967   1.689   3.874   8.544
  339DIO     H418968   1.438   3.883   8.515
  339DIO     H518969   1.439   3.482   8.341
  339DIO     H618970   0.830   3.895   8.343
  339DIO     H718971   0.818   3.505   8.143
  339DIO     H818972   0.661   3.769   8.108
  339DIO     H918973   0.624   3.740   8.473
  339DIO    H1018974   0.485   3.845   8.465
  339DIO    H1118975   0.426   3.598   8.488
  339DIO    H1218976   0.469   3.457   8.281
  339DIO    H1318977   0.616   3.507   8.364
  339DIO    H1418978   0.336   3.714   8.218
  339DIO    H1518979   0.260   3.583   8.306
  339DIO    H1618980   0.273   3.877   8.391
  339DIO    H1718981   0.134   3.789   8.331
  339DIO    H1818982   0.143   3.638   8.534
  339DIO    H1918983   0.274   3.739   8.598
  339DIO    H2018984   0.113   3.808   8.571
  340DIO     F118985   2.972   0.265   2.642
  340DIO     C118986   2.894   0.253   2.533
  340DIO     C218987   2.750   0.246   2.548
  340DIO     C318988   2.661   0.231   2.431
  340DIO     C418989   2.727   0.226   2.298
  340DIO     C518990   2.871   0.233   2.285
  340DIO     F218991   2.926   0.233   2.162
  340DIO     C618992   2.955   0.247   2.402
  340DIO     F318993   3.088   0.253   2.389
  340DIO     C718994   2.515   0.223   2.444
  340DIO     C818995   2.438   0.115   2.379
  340DIO     C918996   2.293   0.107   2.392
  340DIO    C1018997   2.220   0.211   2.461
  340DIO    C1118998   2.293   0.314   2.533
  340DIO    C1218999   2.437   0.321   2.523
  340DIO     F419000   2.502   0.421   2.586
  340DIO     O119001   2.088   0.185   2.490
  340DIO    C1319002   1.994   0.287   2.491
  340DIO     O219003   1.993   0.403   2.442
  340DIO    C1419004   1.865   0.244   2.546
  340DIO    C1519005   1.798   0.119   2.501
  340DIO     F519006   1.861   0.037   2.414
  340DIO    C1619007   1.667   0.079   2.549
  340DIO    C1719008   1.592   0.164   2.639
  340DIO    C1819009   1.660   0.279   2.698
  340DIO    C1919010   1.792   0.318   2.651
  340DIO     F619011   1.855   0.416   2.721
  340DIO    C2019012   1.451   0.129   2.681
  340DIO     O319013   1.381   0.047   2.586
  340DIO    C2119014   1.338   0.121   2.473
  340DIO    C2219015   1.249   0.238   2.514
  340DIO    C2319016   1.329   0.322   2.613
  340DIO     O419017   1.374   0.242   2.722
  340DIO    C2419018   1.116   0.193   2.579
  340DIO    C2519019   1.025   0.105   2.492
  340DIO    C2619020   0.987   0.169   2.359
  340DIO     H119021   2.707   0.252   2.648
  340DIO     H219022   2.666   0.225   2.208
  340DIO     H319023   2.489   0.037   2.324
  340DIO     H419024   2.238   0.023   2.351
  340DIO     H519025   2.238   0.389   2.590
  340DIO     H619026   1.629  -0.018   2.519
  340DIO     H719027   1.618   0.332   2.782
  340DIO     H819028   1.461   0.066   2.771
  340DIO     H919029   1.424   0.157   2.416
  340DIO    H1019030   1.285   0.052   2.406
  340DIO    H1119031   1.226   0.299   2.426
  340DIO    H1219032   1.268   0.403   2.653
  340DIO    H1319033   1.416   0.368   2.563
  340DIO    H1419034   1.136   0.139   2.672
  340DIO    H1519035   1.059   0.283   2.607
  340DIO    H1619036   1.073   0.008   2.474
  340DIO    H1719037   0.933   0.084   2.548
  340DIO    H1819038   0.943   0.268   2.374
  340DIO    H1919039   1.073   0.179   2.293
  340DIO    H2019040   0.913   0.106   2.308
  341DIO     F119041   2.130   4.092   7.534
  341DIO     C119042   2.053   4.094   7.424
  341DIO     C219043   1.908   4.085   7.439
  341DIO     C319044   1.820   4.086   7.320
  341DIO     C419045   1.885   4.098   7.188
  341DIO     C519046   2.029   4.106   7.176
  341DIO     F219047   2.085   4.121   7.054
  341DIO     C619048   2.113   4.105   7.294
  341DIO     F319049   2.247   4.113   7.281
  341DIO     C719050   1.673   4.075   7.333
  341DIO     C819051   1.596   3.977   7.254
  341DIO     C919052   1.451   3.967   7.266
  341DIO    C1019053   1.379   4.062   7.348
  341DIO    C1119054   1.451   4.155   7.433
  341DIO    C1219055   1.595   4.163   7.423
  341DIO     F419056   1.660   4.254   7.498
  341DIO     O119057   1.247   4.032   7.373
  341DIO    C1319058   1.152   4.133   7.387
  341DIO     O219059   1.151   4.255   7.354
  341DIO    C1419060   1.023   4.083   7.436
  341DIO    C1519061   0.957   3.966   7.376
  341DIO     F519062   1.019   3.895   7.279
  341DIO    C1619063   0.826   3.919   7.418
  341DIO    C1719064   0.750   3.993   7.519
  341DIO    C1819065   0.819   4.099   7.592
  341DIO    C1919066   0.951   4.144   7.550
  341DIO     F619067   1.013   4.232   7.631
  341DIO    C2019068   0.609   3.952   7.556
  341DIO     O319069   0.540   3.884   7.451
  341DIO    C2119070   0.496   3.971   7.348
  341DIO    C2219071   0.407   4.082   7.404
  341DIO    C2319072   0.488   4.152   7.512
  341DIO     O419073   0.532   4.059   7.611
  341DIO    C2419074   0.274   4.029   7.462
  341DIO    C2519075   0.184   3.953   7.365
  341DIO    C2619076   0.145   4.033   7.241
  341DIO     H119077   1.866   4.078   7.538
  341DIO     H219078   1.825   4.108   7.098
  341DIO     H319079   1.648   3.906   7.190
  341DIO     H419080   1.396   3.889   7.214
  341DIO     H519081   1.397   4.222   7.498
  341DIO     H619082   0.788   3.827   7.376
  341DIO     H719083   0.776   4.141   7.682
  341DIO     H819084   0.619   3.879   7.637
  341DIO     H919085   0.583   4.014   7.296
  341DIO    H1019086   0.443   3.911   7.273
  341DIO    H1119087   0.385   4.154   7.324
  341DIO    H1219088   0.427   4.228   7.563
  341DIO    H1319089   0.574   4.205   7.469
  341DIO    H1419090   0.294   3.963   7.548
  341DIO    H1519091   0.218   4.114   7.502
  341DIO    H1619092   0.231   3.859   7.334
  341DIO    H1719093   0.092   3.925   7.418
  341DIO    H1819094   0.101   4.129   7.269
  341DIO    H1919095   0.232   4.051   7.177
  341DIO    H2019096   0.072   3.977   7.182
  342DIO     F119097   7.323   1.074   0.611
  342DIO     C119098   7.246   1.155   0.537
  342DIO     C219099   7.102   1.139   0.541
  342DIO     C319100   7.013   1.224   0.459
  342DIO     C419101   7.078   1.328   0.376
  342DIO     C519102   7.223   1.343   0.374
  342DIO     F219103   7.278   1.441   0.301
  342DIO     C619104   7.306   1.257   0.455
  342DIO     F319105   7.440   1.271   0.452
  342DIO     C719106   6.867   1.208   0.460
  342DIO     C819107   6.789   1.197   0.334
  342DIO     C919108   6.645   1.182   0.336
  342DIO    C1019109   6.572   1.188   0.461
  342DIO    C1119110   6.645   1.191   0.587
  342DIO    C1219111   6.789   1.204   0.586
  342DIO     F419112   6.854   1.212   0.704
  342DIO     O119113   6.440   1.149   0.457
  342DIO    C1319114   6.345   1.209   0.540
  342DIO     O219115   6.345   1.317   0.604
  342DIO    C1419116   6.216   1.139   0.538
  342DIO    C1519117   6.150   1.102   0.411
  342DIO     F519118   6.213   1.122   0.293
  342DIO    C1619119   6.019   1.039   0.406
  342DIO    C1719120   5.943   1.017   0.529
  342DIO    C1819121   6.012   1.037   0.656
  342DIO    C1919122   6.144   1.098   0.660
  342DIO     F619123   6.206   1.101   0.780
  342DIO    C2019124   5.803   0.962   0.526
  342DIO     O319125   5.733   0.990   0.404
  342DIO    C2119126   5.689   1.125   0.395
  342DIO    C2219127   5.600   1.161   0.514
  342DIO    C2319128   5.681   1.132   0.640
  342DIO     O419129   5.725   0.996   0.641
  342DIO    C2419130   5.468   1.083   0.516
  342DIO    C2519131   5.377   1.100   0.394
  342DIO    C2619132   5.339   1.245   0.366
  342DIO     H119133   7.059   1.062   0.604
  342DIO     H219134   7.018   1.400   0.322
  342DIO     H319135   6.841   1.195   0.239
  342DIO     H419136   6.590   1.165   0.244
  342DIO     H519137   6.590   1.190   0.680
  342DIO     H619138   5.981   1.006   0.311
  342DIO     H719139   5.969   1.002   0.749
  342DIO     H819140   5.812   0.853   0.529
  342DIO     H919141   5.776   1.192   0.390
  342DIO    H1019142   5.637   1.138   0.300
  342DIO    H1119143   5.578   1.269   0.511
  342DIO    H1219144   5.620   1.147   0.730
  342DIO    H1319145   5.767   1.199   0.648
  342DIO    H1419146   5.488   0.975   0.528
  342DIO    H1519147   5.411   1.113   0.605
  342DIO    H1619148   5.424   1.057   0.305
  342DIO    H1719149   5.285   1.042   0.411
  342DIO    H1819150   5.295   1.292   0.455
  342DIO    H1919151   5.425   1.304   0.335
  342DIO    H2019152   5.265   1.249   0.286
  343DIO     F119153   4.625   4.606   4.824
  343DIO     C119154   4.547   4.496   4.823
  343DIO     C219155   4.403   4.510   4.832
  343DIO     C319156   4.314   4.392   4.833
  343DIO     C419157   4.380   4.259   4.823
  343DIO     C519158   4.524   4.247   4.814
  343DIO     F219159   4.580   4.125   4.801
  343DIO     C619160   4.608   4.365   4.814
  343DIO     F319161   4.742   4.353   4.807
  343DIO     C719162   4.168   4.404   4.843
  343DIO     C819163   4.091   4.327   4.943
  343DIO     C919164   3.946   4.339   4.952
  343DIO    C1019165   3.874   4.420   4.857
  343DIO    C1119166   3.946   4.503   4.762
  343DIO    C1219167   4.090   4.493   4.755
  343DIO     F419168   4.155   4.567   4.663
  343DIO     O119169   3.741   4.446   4.886
  343DIO    C1319170   3.647   4.458   4.785
  343DIO     O219171   3.646   4.423   4.664
  343DIO    C1419172   3.518   4.508   4.834
  343DIO    C1519173   3.452   4.449   4.952
  343DIO     F519174   3.514   4.353   5.024
  343DIO    C1619175   3.321   4.492   4.998
  343DIO    C1719176   3.245   4.591   4.923
  343DIO    C1819177   3.314   4.663   4.817
  343DIO    C1919178   3.445   4.621   4.772
  343DIO     F619179   3.508   4.701   4.683
  343DIO    C2019180   3.104   4.629   4.963
  343DIO     O319181   3.035   4.525   5.033
  343DIO    C2119182   2.991   4.421   4.947
  343DIO    C2219183   2.902   4.475   4.836
  343DIO    C2319184   2.983   4.583   4.764
  343DIO     O419185   3.027   4.683   4.856
  343DIO    C2419186   2.769   4.535   4.888
  343DIO    C2519187   2.679   4.438   4.965
  343DIO    C2619188   2.640   4.314   4.887
  343DIO     H119189   4.361   4.610   4.837
  343DIO     H219190   4.319   4.170   4.814
  343DIO     H319191   4.142   4.264   5.014
  343DIO     H419192   3.891   4.288   5.031
  343DIO     H519193   3.892   4.568   4.695
  343DIO     H619194   3.283   4.451   5.091
  343DIO     H719195   3.271   4.752   4.773
  343DIO     H819196   3.114   4.711   5.036
  343DIO     H919197   3.078   4.369   4.906
  343DIO    H1019198   2.938   4.347   5.009
  343DIO    H1119199   2.879   4.395   4.765
  343DIO    H1219200   2.922   4.633   4.688
  343DIO    H1319201   3.069   4.539   4.712
  343DIO    H1419202   2.789   4.621   4.953
  343DIO    H1519203   2.713   4.573   4.802
  343DIO    H1619204   2.726   4.409   5.060
  343DIO    H1719205   2.587   4.492   4.993
  343DIO    H1819206   2.596   4.340   4.790
  343DIO    H1919207   2.727   4.249   4.869
  343DIO    H2019208   2.566   4.255   4.943
  344DIO     F119209   2.134   2.466   9.764
  344DIO     C119210   2.057   2.357   9.780
  344DIO     C219211   1.913   2.373   9.787
  344DIO     C319212   1.824   2.256   9.806
  344DIO     C419213   1.889   2.123   9.817
  344DIO     C519214   2.034   2.110   9.810
  344DIO     F219215   2.089   1.988   9.816
  344DIO     C619216   2.117   2.226   9.791
  344DIO     F319217   2.251   2.213   9.786
  344DIO     C719218   1.677   2.270   9.814
  344DIO     C819219   1.600   2.209   9.925
  344DIO     C919220   1.456   2.222   9.932
  344DIO    C1019221   1.383   2.287   9.825
  344DIO    C1119222   1.455   2.355   9.719
  344DIO    C1219223   1.600   2.344   9.713
  344DIO     F419224   1.664   2.403   9.610
  344DIO     O119225   1.251   2.317   9.850
  344DIO    C1319226   1.156   2.314   9.748
  344DIO     O219227   1.155   2.260   9.634
  344DIO    C1419228   1.027   2.371   9.789
  344DIO    C1519229   0.961   2.331   9.915
  344DIO     F519230   1.023   2.248  10.001
  344DIO    C1619231   0.830   2.380   9.954
  344DIO    C1719232   0.754   2.467   9.864
  344DIO    C1819233   0.823   2.521   9.748
  344DIO    C1919234   0.955   2.473   9.710
  344DIO     F619235   1.017   2.538   9.609
  344DIO    C2019236   0.614   2.511   9.898
  344DIO     O319237   0.544   2.419   9.983
  344DIO    C2119238   0.500   2.302   9.915
  344DIO    C2219239   0.411   2.339   9.796
  344DIO    C2319240   0.492   2.434   9.708
  344DIO     O419241   0.536   2.547   9.783
  344DIO    C2419242   0.278   2.405   9.838
  344DIO    C2519243   0.188   2.322   9.930
  344DIO    C2619244   0.149   2.187   9.872
  344DIO     H119245   1.870   2.472   9.777
  344DIO     H219246   1.829   2.033   9.822
  344DIO     H319247   1.652   2.158  10.005
  344DIO     H419248   1.400   2.185  10.018
  344DIO     H519249   1.401   2.408   9.642
  344DIO     H619250   0.792   2.354  10.052
  344DIO     H719251   0.780   2.603   9.690
  344DIO     H819252   0.623   2.603   9.957
  344DIO     H919253   0.587   2.244   9.881
  344DIO    H1019254   0.447   2.239   9.987
  344DIO    H1119255   0.389   2.248   9.739
  344DIO    H1219256   0.431   2.471   9.625
  344DIO    H1319257   0.578   2.383   9.664
  344DIO    H1419258   0.298   2.501   9.888
  344DIO    H1519259   0.222   2.430   9.747
  344DIO    H1619260   0.235   2.308  10.027
  344DIO    H1719261   0.096   2.380   9.948
  344DIO    H1819262   0.105   2.198   9.772
  344DIO    H1919263   0.236   2.121   9.865
  344DIO    H2019264   0.076   2.138   9.936
  345DIO     F119265   6.293   8.668   5.019
  345DIO     C119266   6.215   8.620   5.118
  345DIO     C219267   6.071   8.634   5.109
  345DIO     C319268   5.982   8.584   5.216
  345DIO     C419269   6.048   8.518   5.332
  345DIO     C519270   6.192   8.505   5.338
  345DIO     F219271   6.247   8.440   5.443
  345DIO     C619272   6.276   8.555   5.232
  345DIO     F319273   6.409   8.543   5.240
  345DIO     C719274   5.836   8.598   5.209
  345DIO     C819275   5.759   8.655   5.322
  345DIO     C919276   5.614   8.669   5.316
  345DIO    C1019277   5.541   8.617   5.201
  345DIO    C1119278   5.614   8.568   5.085
  345DIO    C1219279   5.758   8.557   5.091
  345DIO     F419280   5.823   8.506   4.984
  345DIO     O119281   5.409   8.655   5.190
  345DIO    C1319282   5.315   8.569   5.135
  345DIO     O219283   5.314   8.445   5.115
  345DIO    C1419284   5.186   8.634   5.112
  345DIO    C1519285   5.119   8.716   5.216
  345DIO     F519286   5.182   8.740   5.333
  345DIO    C1619287   4.988   8.776   5.197
  345DIO    C1719288   4.913   8.751   5.075
  345DIO    C1819289   4.981   8.686   4.964
  345DIO    C1919290   5.113   8.627   4.983
  345DIO     F619291   5.176   8.581   4.872
  345DIO    C2019292   4.772   8.804   5.058
  345DIO     O319293   4.702   8.822   5.182
  345DIO    C2119294   4.659   8.700   5.239
  345DIO    C2219295   4.570   8.623   5.142
  345DIO    C2319296   4.650   8.604   5.014
  345DIO     O419297   4.695   8.729   4.963
  345DIO    C2419298   4.437   8.695   5.111
  345DIO    C2519299   4.346   8.723   5.231
  345DIO    C2619300   4.308   8.599   5.310
  345DIO     H119301   6.028   8.682   5.021
  345DIO     H219302   5.987   8.471   5.408
  345DIO     H319303   5.810   8.692   5.410
  345DIO     H419304   5.559   8.718   5.394
  345DIO     H519305   5.559   8.535   4.998
  345DIO     H619306   4.950   8.842   5.274
  345DIO     H719307   4.939   8.685   4.865
  345DIO     H819308   4.782   8.904   5.015
  345DIO     H919309   4.745   8.639   5.268
  345DIO    H1019310   4.606   8.723   5.332
  345DIO    H1119311   4.547   8.524   5.184
  345DIO    H1219312   4.589   8.556   4.936
  345DIO    H1319313   4.737   8.538   5.031
  345DIO    H1419314   4.457   8.790   5.061
  345DIO    H1519315   4.380   8.634   5.039
  345DIO    H1619316   4.394   8.796   5.298
  345DIO    H1719317   4.254   8.771   5.194
  345DIO    H1819318   4.264   8.523   5.245
  345DIO    H1919319   4.394   8.555   5.361
  345DIO    H2019320   4.234   8.625   5.387
  346DIO     F119321   4.133   5.367   2.234
  346DIO     C119322   4.055   5.426   2.326
  346DIO     C219323   3.911   5.425   2.310
  346DIO     C319324   3.822   5.491   2.408
  346DIO     C419325   3.888   5.554   2.525
  346DIO     C519326   4.032   5.553   2.540
  346DIO     F219327   4.087   5.608   2.649
  346DIO     C619328   4.116   5.489   2.441
  346DIO     F319329   4.249   5.490   2.455
  346DIO     C719330   3.676   5.492   2.392
  346DIO     C819331   3.599   5.618   2.403
  346DIO     C919332   3.454   5.619   2.388
  346DIO    C1019333   3.381   5.495   2.372
  346DIO    C1119334   3.454   5.370   2.353
  346DIO    C1219335   3.598   5.369   2.366
  346DIO     F419336   3.663   5.252   2.353
  346DIO     O119337   3.249   5.506   2.334
  346DIO    C1319338   3.155   5.414   2.379
  346DIO     O219339   3.154   5.331   2.474
  346DIO    C1419340   3.025   5.428   2.310
  346DIO    C1519341   2.959   5.559   2.295
  346DIO     F519342   3.022   5.672   2.336
  346DIO    C1619343   2.828   5.575   2.234
  346DIO    C1719344   2.753   5.458   2.191
  346DIO    C1819345   2.821   5.329   2.189
  346DIO    C1919346   2.953   5.314   2.249
  346DIO     F619347   3.015   5.196   2.231
  346DIO    C2019348   2.612   5.471   2.138
  346DIO     O319349   2.542   5.586   2.187
  346DIO    C2119350   2.498   5.571   2.322
  346DIO    C2219351   2.410   5.448   2.337
  346DIO    C2319352   2.490   5.328   2.285
  346DIO     O419353   2.535   5.351   2.152
  346DIO    C2419354   2.277   5.459   2.258
  346DIO    C2519355   2.186   5.576   2.297
  346DIO    C2619356   2.148   5.578   2.444
  346DIO     H119357   3.868   5.376   2.223
  346DIO     H219358   3.827   5.595   2.605
  346DIO     H319359   3.650   5.712   2.417
  346DIO     H419360   3.399   5.712   2.387
  346DIO     H519361   3.399   5.279   2.336
  346DIO     H619362   2.790   5.675   2.219
  346DIO     H719363   2.778   5.244   2.138
  346DIO     H819364   2.622   5.487   2.030
  346DIO     H919365   2.585   5.564   2.388
  346DIO    H1019366   2.446   5.662   2.350
  346DIO    H1119367   2.387   5.432   2.443
  346DIO    H1219368   2.429   5.238   2.285
  346DIO    H1319369   2.576   5.309   2.350
  346DIO    H1419370   2.297   5.466   2.151
  346DIO    H1519371   2.220   5.366   2.273
  346DIO    H1619372   2.233   5.671   2.270
  346DIO    H1719373   2.094   5.570   2.237
  346DIO    H1819374   2.104   5.483   2.475
  346DIO    H1919375   2.234   5.599   2.508
  346DIO    H2019376   2.074   5.657   2.463
  347DIO     F119377   9.886   3.625   3.880
  347DIO     C119378   9.808   3.578   3.781
  347DIO     C219379   9.664   3.577   3.798
  347DIO     C319380   9.575   3.524   3.692
  347DIO     C419381   9.641   3.475   3.568
  347DIO     C519382   9.785   3.478   3.554
  347DIO     F219383   9.840   3.437   3.438
  347DIO     C619384   9.869   3.530   3.659
  347DIO     F319385  10.002   3.531   3.645
  347DIO     C719386   9.429   3.521   3.708
  347DIO     C819387   9.352   3.397   3.681
  347DIO     C919388   9.207   3.394   3.696
  347DIO    C1019389   9.134   3.515   3.728
  347DIO    C1119390   9.207   3.637   3.761
  347DIO    C1219391   9.351   3.639   3.749
  347DIO     F419392   9.416   3.754   3.776
  347DIO     O119393   9.002   3.500   3.764
  347DIO    C1319394   8.908   3.597   3.731
  347DIO     O219395   8.907   3.690   3.646
  347DIO    C1419396   8.778   3.574   3.797
  347DIO    C1519397   8.712   3.442   3.795
  347DIO     F519398   8.775   3.335   3.741
  347DIO    C1619399   8.581   3.419   3.854
  347DIO    C1719400   8.506   3.530   3.911
  347DIO    C1819401   8.574   3.657   3.929
  347DIO    C1919402   8.706   3.679   3.872
  347DIO     F619403   8.768   3.794   3.904
  347DIO    C2019404   8.365   3.510   3.962
  347DIO     O319405   8.295   3.402   3.900
  347DIO    C2119406   8.251   3.434   3.768
  347DIO    C2219407   8.163   3.558   3.768
  347DIO    C2319408   8.243   3.670   3.834
  347DIO     O419409   8.288   3.631   3.964
  347DIO    C2419410   8.030   3.537   3.844
  347DIO    C2519411   7.939   3.425   3.791
  347DIO    C2619412   7.901   3.442   3.645
  347DIO     H119413   9.621   3.615   3.890
  347DIO     H219414   9.580   3.445   3.483
  347DIO     H319415   9.403   3.305   3.655
  347DIO     H419416   9.152   3.301   3.685
  347DIO     H519417   9.152   3.725   3.790
  347DIO     H619418   8.543   3.318   3.857
  347DIO     H719419   8.531   3.736   3.990
  347DIO     H819420   8.375   3.481   4.068
  347DIO     H919421   8.338   3.449   3.703
  347DIO    H1019422   8.199   3.347   3.728
  347DIO    H1119423   8.140   3.587   3.665
  347DIO    H1219424   8.182   3.760   3.845
  347DIO    H1319425   8.329   3.697   3.772
  347DIO    H1419426   8.050   3.517   3.950
  347DIO    H1519427   7.973   3.631   3.842
  347DIO    H1619428   7.986   3.328   3.806
  347DIO    H1719429   7.847   3.424   3.852
  347DIO    H1819430   7.857   3.540   3.626
  347DIO    H1919431   7.987   3.429   3.579
  347DIO    H2019432   7.827   3.366   3.617
  348DIO     F119433   8.125   2.181   4.072
  348DIO     C119434   8.047   2.077   4.035
  348DIO     C219435   7.903   2.088   4.048
  348DIO     C319436   7.815   1.976   4.011
  348DIO     C419437   7.880   1.854   3.958
  348DIO     C519438   8.024   1.846   3.946
  348DIO     F219439   8.080   1.735   3.893
  348DIO     C619440   8.108   1.957   3.984
  348DIO     F319441   8.242   1.947   3.973
  348DIO     C719442   7.668   1.984   4.025
  348DIO     C819443   7.591   1.878   4.094
  348DIO     C919444   7.446   1.887   4.106
  348DIO    C1019445   7.374   1.995   4.042
  348DIO    C1119446   7.446   2.104   3.980
  348DIO    C1219447   7.590   2.097   3.970
  348DIO     F419448   7.655   2.198   3.907
  348DIO     O119449   7.242   2.009   4.079
  348DIO    C1319450   7.147   2.054   3.987
  348DIO     O219451   7.146   2.061   3.861
  348DIO    C1419452   7.018   2.085   4.050
  348DIO    C1519453   6.952   1.991   4.142
  348DIO     F519454   7.014   1.877   4.179
  348DIO    C1619455   6.821   2.016   4.200
  348DIO    C1719456   6.745   2.135   4.162
  348DIO    C1819457   6.814   2.238   4.084
  348DIO    C1919458   6.945   2.212   4.028
  348DIO     F619459   7.008   2.317   3.970
  348DIO    C2019460   6.604   2.157   4.212
  348DIO     O319461   6.535   2.037   4.244
  348DIO    C2119462   6.491   1.966   4.129
  348DIO    C2219463   6.402   2.054   4.041
  348DIO    C2319464   6.483   2.179   4.008
  348DIO     O419465   6.527   2.243   4.127
  348DIO    C2419466   6.269   2.093   4.110
  348DIO    C2519467   6.179   1.976   4.151
  348DIO    C2619468   6.140   1.884   4.036
  348DIO     H119469   7.861   2.180   4.086
  348DIO     H219470   7.819   1.772   3.920
  348DIO     H319471   7.643   1.796   4.140
  348DIO     H419472   7.391   1.814   4.164
  348DIO     H519473   7.392   2.187   3.938
  348DIO     H619474   6.783   1.947   4.274
  348DIO     H719475   6.771   2.336   4.072
  348DIO     H819476   6.614   2.211   4.307
  348DIO     H919477   6.578   1.930   4.072
  348DIO    H1019478   6.438   1.876   4.162
  348DIO    H1119479   6.380   2.001   3.948
  348DIO    H1219480   6.422   2.251   3.952
  348DIO    H1319481   6.569   2.155   3.945
  348DIO    H1419482   6.289   2.153   4.199
  348DIO    H1519483   6.213   2.157   4.041
  348DIO    H1619484   6.226   1.918   4.231
  348DIO    H1719485   6.087   2.018   4.194
  348DIO    H1819486   6.096   1.941   3.953
  348DIO    H1919487   6.227   1.829   3.999
  348DIO    H2019488   6.067   1.811   4.070
  349DIO     F119489   6.590   1.361   1.168
  349DIO     C119490   6.512   1.265   1.113
  349DIO     C219491   6.368   1.273   1.128
  349DIO     C319492   6.279   1.169   1.072
  349DIO     C419493   6.345   1.058   0.999
  349DIO     C519494   6.489   1.052   0.986
  349DIO     F219495   6.544   0.951   0.915
  349DIO     C619496   6.573   1.155   1.042
  349DIO     F319497   6.706   1.148   1.030
  349DIO     C719498   6.133   1.175   1.087
  349DIO     C819499   6.056   1.059   1.137
  349DIO     C919500   5.911   1.065   1.151
  349DIO    C1019501   5.838   1.183   1.106
  349DIO    C1119502   5.911   1.301   1.064
  349DIO    C1219503   6.055   1.296   1.052
  349DIO     F419504   6.120   1.405   1.008
  349DIO     O119505   5.706   1.191   1.145
  349DIO    C1319506   5.612   1.251   1.062
  349DIO     O219507   5.611   1.278   0.939
  349DIO    C1419508   5.483   1.271   1.129
  349DIO    C1519509   5.416   1.162   1.204
  349DIO     F519510   5.479   1.043   1.221
  349DIO    C1619511   5.285   1.177   1.265
  349DIO    C1719512   5.210   1.301   1.248
  349DIO    C1819513   5.278   1.415   1.189
  349DIO    C1919514   5.410   1.400   1.129
  349DIO     F619515   5.473   1.513   1.090
  349DIO    C2019516   5.069   1.314   1.301
  349DIO     O319517   4.999   1.190   1.312
  349DIO    C2119518   4.956   1.139   1.186
  349DIO    C2219519   4.867   1.241   1.115
  349DIO    C2319520   4.947   1.370   1.104
  349DIO     O419521   4.992   1.413   1.232
  349DIO    C2419522   4.734   1.268   1.189
  349DIO    C2519523   4.643   1.146   1.210
  349DIO    C2619524   4.605   1.075   1.082
  349DIO     H119525   6.325   1.358   1.181
  349DIO     H219526   6.284   0.984   0.948
  349DIO     H319527   6.107   0.970   1.169
  349DIO     H419528   5.856   0.983   1.195
  349DIO     H519529   5.856   1.390   1.036
  349DIO     H619530   5.247   1.096   1.326
  349DIO     H719531   5.236   1.514   1.193
  349DIO     H819532   5.079   1.351   1.404
  349DIO     H919533   5.042   1.114   1.124
  349DIO    H1019534   4.903   1.045   1.204
  349DIO    H1119535   4.844   1.205   1.014
  349DIO    H1219536   4.886   1.450   1.061
  349DIO    H1319537   5.034   1.357   1.037
  349DIO    H1419538   4.754   1.312   1.287
  349DIO    H1519539   4.677   1.343   1.133
  349DIO    H1619540   4.691   1.075   1.279
  349DIO    H1719541   4.551   1.180   1.260
  349DIO    H1819542   4.561   1.144   1.010
  349DIO    H1919543   4.691   1.027   1.035
  349DIO    H2019544   4.531   0.997   1.103
  350DIO     F119545   8.104   2.336   8.838
  350DIO     C119546   8.027   2.392   8.933
  350DIO     C219547   7.883   2.392   8.916
  350DIO     C319548   7.794   2.454   9.017
  350DIO     C419549   7.859   2.513   9.136
  350DIO     C519550   8.004   2.512   9.150
  350DIO     F219551   8.059   2.564   9.262
  350DIO     C619552   8.087   2.451   9.050
  350DIO     F319553   8.221   2.452   9.064
  350DIO     C719554   7.647   2.456   9.001
  350DIO     C819555   7.570   2.581   9.016
  350DIO     C919556   7.426   2.583   9.001
  350DIO    C1019557   7.353   2.459   8.980
  350DIO    C1119558   7.425   2.336   8.958
  350DIO    C1219559   7.570   2.334   8.970
  350DIO     F419560   7.634   2.217   8.954
  350DIO     O119561   7.221   2.472   8.943
  350DIO    C1319562   7.126   2.378   8.985
  350DIO     O219563   7.125   2.293   9.077
  350DIO    C1419564   6.997   2.395   8.917
  350DIO    C1519565   6.931   2.526   8.906
  350DIO     F519566   6.993   2.637   8.951
  350DIO    C1619567   6.800   2.544   8.846
  350DIO    C1719568   6.724   2.428   8.799
  350DIO    C1819569   6.793   2.300   8.793
  350DIO    C1919570   6.925   2.283   8.852
  350DIO     F619571   6.987   2.166   8.829
  350DIO    C2019572   6.584   2.443   8.746
  350DIO     O319573   6.514   2.557   8.799
  350DIO    C2119574   6.470   2.537   8.933
  350DIO    C2219575   6.381   2.413   8.944
  350DIO    C2319576   6.462   2.296   8.888
  350DIO     O419577   6.506   2.323   8.756
  350DIO    C2419578   6.248   2.427   8.866
  350DIO    C2519579   6.158   2.543   8.909
  350DIO    C2619580   6.119   2.540   9.056
  350DIO     H119581   7.840   2.345   8.828
  350DIO     H219582   7.799   2.552   9.217
  350DIO     H319583   7.622   2.675   9.033
  350DIO     H419584   7.370   2.676   9.003
  350DIO     H519585   7.371   2.245   8.937
  350DIO     H619586   6.762   2.644   8.834
  350DIO     H719587   6.750   2.216   8.739
  350DIO     H819588   6.593   2.463   8.639
  350DIO     H919589   6.557   2.528   8.999
  350DIO    H1019590   6.417   2.627   8.965
  350DIO    H1119591   6.359   2.394   9.049
  350DIO    H1219592   6.401   2.205   8.885
  350DIO    H1319593   6.548   2.274   8.953
  350DIO    H1419594   6.268   2.438   8.759
  350DIO    H1519595   6.192   2.334   8.877
  350DIO    H1619596   6.205   2.639   8.885
  350DIO    H1719597   6.066   2.539   8.849
  350DIO    H1819598   6.075   2.444   9.083
  350DIO    H1919599   6.206   2.559   9.120
  350DIO    H2019600   6.046   2.618   9.077
  351DIO     F119601   3.246   2.208   2.809
  351DIO     C119602   3.168   2.101   2.783
  351DIO     C219603   3.024   2.114   2.794
  351DIO     C319604   2.935   1.998   2.769
  351DIO     C419605   3.001   1.871   2.729
  351DIO     C519606   3.145   1.862   2.718
  351DIO     F219607   3.200   1.746   2.677
  351DIO     C619608   3.229   1.976   2.744
  351DIO     F319609   3.363   1.966   2.734
  351DIO     C719610   2.789   2.008   2.782
  351DIO     C819611   2.712   1.910   2.861
  351DIO     C919612   2.567   1.919   2.873
  351DIO    C1019613   2.494   2.020   2.798
  351DIO    C1119614   2.567   2.123   2.725
  351DIO    C1219615   2.711   2.115   2.715
  351DIO     F419616   2.776   2.208   2.643
  351DIO     O119617   2.362   2.038   2.833
  351DIO    C1319618   2.268   2.074   2.737
  351DIO     O219619   2.267   2.067   2.611
  351DIO    C1419620   2.139   2.111   2.796
  351DIO    C1519621   2.072   2.027   2.898
  351DIO     F519622   2.135   1.917   2.946
  351DIO    C1619623   1.942   2.058   2.952
  351DIO    C1719624   1.866   2.172   2.902
  351DIO    C1819625   1.935   2.266   2.814
  351DIO    C1919626   2.066   2.235   2.761
  351DIO     F619627   2.129   2.333   2.692
  351DIO    C2019628   1.725   2.200   2.950
  351DIO     O319629   1.655   2.083   2.994
  351DIO    C2119630   1.612   2.000   2.887
  351DIO    C2219631   1.523   2.078   2.791
  351DIO    C2319632   1.604   2.200   2.745
  351DIO     O419633   1.648   2.276   2.857
  351DIO    C2419634   1.390   2.125   2.855
  351DIO    C2519635   1.299   2.013   2.908
  351DIO    C2619636   1.261   1.910   2.804
  351DIO     H119637   2.981   2.209   2.822
  351DIO     H219638   2.940   1.786   2.700
  351DIO     H319639   2.763   1.832   2.916
  351DIO     H419640   2.512   1.853   2.938
  351DIO     H519641   2.513   2.201   2.674
  351DIO     H619642   1.903   1.997   3.033
  351DIO     H719643   1.892   2.363   2.792
  351DIO     H819644   1.735   2.263   3.038
  351DIO     H919645   1.698   1.959   2.834
  351DIO    H1019646   1.559   1.915   2.930
  351DIO    H1119647   1.500   2.016   2.703
  351DIO    H1219648   1.542   2.265   2.682
  351DIO    H1319649   1.690   2.169   2.684
  351DIO    H1419650   1.410   2.194   2.937
  351DIO    H1519651   1.334   2.182   2.780
  351DIO    H1619652   1.347   1.963   2.994
  351DIO    H1719653   1.208   2.059   2.947
  351DIO    H1819654   1.217   1.957   2.715
  351DIO    H1919655   1.347   1.851   2.772
  351DIO    H2019656   1.187   1.840   2.845
  352DIO     F119657   8.510   0.963   4.360
  352DIO     C119658   8.432   0.857   4.386
  352DIO     C219659   8.288   0.873   4.391
  352DIO     C319660   8.199   0.758   4.421
  352DIO     C419661   8.265   0.627   4.444
  352DIO     C519662   8.409   0.614   4.438
  352DIO     F219663   8.464   0.492   4.455
  352DIO     C619664   8.493   0.728   4.409
  352DIO     F319665   8.627   0.714   4.405
  352DIO     C719666   8.053   0.773   4.428
  352DIO     C819667   7.976   0.722   4.543
  352DIO     C919668   7.831   0.736   4.550
  352DIO    C1019669   7.758   0.792   4.437
  352DIO    C1119670   7.831   0.849   4.325
  352DIO    C1219671   7.975   0.837   4.320
  352DIO     F419672   8.040   0.887   4.213
  352DIO     O119673   7.626   0.824   4.459
  352DIO    C1319674   7.532   0.811   4.358
  352DIO     O219675   7.531   0.747   4.249
  352DIO    C1419676   7.403   0.871   4.393
  352DIO    C1519677   7.336   0.843   4.522
  352DIO     F519678   7.399   0.768   4.616
  352DIO    C1619679   7.206   0.896   4.557
  352DIO    C1719680   7.130   0.974   4.460
  352DIO    C1819681   7.199   1.017   4.339
  352DIO    C1919682   7.330   0.966   4.305
  352DIO     F619683   7.393   1.021   4.199
  352DIO    C2019684   6.989   1.020   4.489
  352DIO     O319685   6.919   0.937   4.582
  352DIO    C2119686   6.876   0.814   4.525
  352DIO    C2219687   6.787   0.840   4.403
  352DIO    C2319688   6.868   0.927   4.307
  352DIO     O419689   6.912   1.046   4.371
  352DIO    C2419690   6.654   0.910   4.439
  352DIO    C2519691   6.563   0.836   4.538
  352DIO    C2619692   6.525   0.696   4.492
  352DIO     H119693   8.245   0.971   4.372
  352DIO     H219694   8.204   0.538   4.457
  352DIO     H319695   8.027   0.678   4.628
  352DIO     H419696   7.776   0.707   4.638
  352DIO     H519697   7.777   0.895   4.244
  352DIO     H619698   7.167   0.879   4.656
  352DIO     H719699   7.156   1.093   4.274
  352DIO     H819700   6.999   1.118   4.539
  352DIO     H919701   6.962   0.754   4.497
  352DIO    H1019702   6.823   0.758   4.602
  352DIO    H1119703   6.764   0.745   4.354
  352DIO    H1219704   6.806   0.956   4.221
  352DIO    H1319705   6.954   0.872   4.267
  352DIO    H1419706   6.674   1.010   4.481
  352DIO    H1519707   6.598   0.926   4.347
  352DIO    H1619708   6.611   0.831   4.637
  352DIO    H1719709   6.472   0.895   4.551
  352DIO    H1819710   6.481   0.697   4.392
  352DIO    H1919711   6.611   0.629   4.491
  352DIO    H2019712   6.451   0.653   4.561
  353DIO     F119713   9.582   3.730   7.033
  353DIO     C119714   9.504   3.688   7.134
  353DIO     C219715   9.360   3.702   7.124
  353DIO     C319716   9.271   3.659   7.235
  353DIO     C419717   9.337   3.600   7.354
  353DIO     C519718   9.481   3.587   7.361
  353DIO     F219719   9.537   3.529   7.470
  353DIO     C619720   9.565   3.631   7.252
  353DIO     F319721   9.699   3.620   7.261
  353DIO     C719722   9.125   3.673   7.227
  353DIO     C819723   9.048   3.737   7.336
  353DIO     C919724   8.903   3.750   7.328
  353DIO    C1019725   8.831   3.691   7.217
  353DIO    C1119726   8.903   3.635   7.105
  353DIO    C1219727   9.047   3.624   7.111
  353DIO     F419728   9.112   3.566   7.008
  353DIO     O119729   8.698   3.728   7.204
  353DIO    C1319730   8.604   3.639   7.155
  353DIO     O219731   8.603   3.513   7.142
  353DIO    C1419732   8.475   3.703   7.127
  353DIO    C1519733   8.409   3.791   7.226
  353DIO     F519734   8.471   3.822   7.341
  353DIO    C1619735   8.278   3.849   7.203
  353DIO    C1719736   8.202   3.817   7.083
  353DIO    C1819737   8.271   3.745   6.977
  353DIO    C1919738   8.402   3.687   6.999
  353DIO     F619739   8.465   3.634   6.892
  353DIO    C2019740   8.061   3.868   7.063
  353DIO     O319741   7.992   3.895   7.185
  353DIO    C2119742   7.948   3.776   7.250
  353DIO    C2219743   7.859   3.693   7.158
  353DIO    C2319744   7.940   3.666   7.031
  353DIO     O419745   7.984   3.788   6.973
  353DIO    C2419746   7.726   3.763   7.123
  353DIO    C2519747   7.636   3.799   7.241
  353DIO    C2619748   7.597   3.680   7.327
  353DIO     H119749   9.318   3.744   7.034
  353DIO     H219750   9.276   3.558   7.433
  353DIO     H319751   9.099   3.779   7.421
  353DIO     H419752   8.848   3.804   7.404
  353DIO     H519753   8.849   3.596   7.020
  353DIO     H619754   8.240   3.920   7.276
  353DIO     H719755   8.228   3.737   6.878
  353DIO     H819756   8.071   3.966   7.014
  353DIO     H919757   8.035   3.717   7.283
  353DIO    H1019758   7.895   3.805   7.341
  353DIO    H1119759   7.836   3.597   7.206
  353DIO    H1219760   7.879   3.614   6.957
  353DIO    H1319761   8.026   3.601   7.053
  353DIO    H1419762   7.746   3.855   7.066
  353DIO    H1519763   7.670   3.698   7.055
  353DIO    H1619764   7.683   3.875   7.303
  353DIO    H1719765   7.544   3.844   7.201
  353DIO    H1819766   7.553   3.600   7.267
  353DIO    H1919767   7.684   3.639   7.381
  353DIO    H2019768   7.523   3.710   7.402
  354DIO     F119769   6.046   1.038   4.061
  354DIO     C119770   5.968   0.962   4.141
  354DIO     C219771   5.824   0.979   4.136
  354DIO     C319772   5.736   0.899   4.224
  354DIO     C419773   5.801   0.801   4.314
  354DIO     C519774   5.945   0.787   4.317
  354DIO     F219775   6.001   0.694   4.397
  354DIO     C619776   6.029   0.867   4.230
  354DIO     F319777   6.163   0.853   4.235
  354DIO     C719778   5.589   0.915   4.222
  354DIO     C819779   5.512   0.935   4.346
  354DIO     C919780   5.367   0.950   4.344
  354DIO    C1019781   5.295   0.936   4.219
  354DIO    C1119782   5.367   0.923   4.094
  354DIO    C1219783   5.511   0.911   4.096
  354DIO     F419784   5.576   0.894   3.979
  354DIO     O119785   5.163   0.975   4.220
  354DIO    C1319786   5.068   0.909   4.142
  354DIO     O219787   5.067   0.796   4.086
  354DIO    C1419788   4.939   0.979   4.139
  354DIO    C1519789   4.873   1.025   4.263
  354DIO     F519790   4.935   1.013   4.382
  354DIO    C1619791   4.742   1.088   4.263
  354DIO    C1719792   4.666   1.101   4.139
  354DIO    C1819793   4.735   1.072   4.014
  354DIO    C1919794   4.866   1.010   4.014
  354DIO     F619795   4.929   0.999   3.895
  354DIO    C2019796   4.525   1.156   4.139
  354DIO     O319797   4.456   1.137   4.262
  354DIO    C2119798   4.412   1.003   4.280
  354DIO    C2219799   4.323   0.958   4.165
  354DIO    C2319800   4.404   0.979   4.037
  354DIO     O419801   4.448   1.114   4.026
  354DIO    C2419802   4.190   1.037   4.157
  354DIO    C2519803   4.100   1.028   4.280
  354DIO    C2619804   4.061   0.886   4.318
  354DIO     H119805   5.782   1.051   4.067
  354DIO     H219806   5.740   0.734   4.373
  354DIO     H319807   5.564   0.945   4.441
  354DIO     H419808   5.312   0.974   4.434
  354DIO     H519809   5.313   0.918   4.001
  354DIO     H619810   4.704   1.128   4.356
  354DIO     H719811   4.692   1.100   3.919
  354DIO     H819812   4.535   1.265   4.128
  354DIO     H919813   4.499   0.937   4.290
  354DIO    H1019814   4.359   0.997   4.376
  354DIO    H1119815   4.301   0.851   4.175
  354DIO    H1219816   4.343   0.956   3.949
  354DIO    H1319817   4.490   0.911   4.033
  354DIO    H1419818   4.210   1.143   4.137
  354DIO    H1519819   4.134   1.000   4.070
  354DIO    H1619820   4.147   1.077   4.365
  354DIO    H1719821   4.008   1.084   4.259
  354DIO    H1819822   4.017   0.832   4.233
  354DIO    H1919823   4.148   0.829   4.353
  354DIO    H2019824   3.988   0.887   4.399
  355DIO     F119825   9.474   3.690   8.452
  355DIO     C119826   9.397   3.800   8.455
  355DIO     C219827   9.253   3.785   8.446
  355DIO     C319828   9.164   3.904   8.446
  355DIO     C419829   9.229   4.036   8.457
  355DIO     C519830   9.374   4.048   8.466
  355DIO     F219831   9.429   4.170   8.481
  355DIO     C619832   9.457   3.930   8.465
  355DIO     F319833   9.591   3.943   8.472
  355DIO     C719834   9.017   3.891   8.435
  355DIO     C819835   8.940   3.970   8.337
  355DIO     C919836   8.796   3.958   8.327
  355DIO    C1019837   8.723   3.876   8.422
  355DIO    C1119838   8.796   3.791   8.515
  355DIO    C1219839   8.940   3.801   8.523
  355DIO     F419840   9.005   3.726   8.614
  355DIO     O119841   8.591   3.850   8.392
  355DIO    C1319842   8.496   3.837   8.493
  355DIO     O219843   8.495   3.871   8.615
  355DIO    C1419844   8.367   3.788   8.444
  355DIO    C1519845   8.301   3.848   8.326
  355DIO     F519846   8.364   3.944   8.255
  355DIO    C1619847   8.170   3.805   8.280
  355DIO    C1719848   8.094   3.705   8.353
  355DIO    C1819849   8.163   3.632   8.459
  355DIO    C1919850   8.295   3.674   8.505
  355DIO     F619851   8.357   3.593   8.593
  355DIO    C2019852   7.954   3.668   8.313
  355DIO     O319853   7.884   3.772   8.244
  355DIO    C2119854   7.840   3.876   8.331
  355DIO    C2219855   7.751   3.820   8.442
  355DIO    C2319856   7.832   3.712   8.513
  355DIO     O419857   7.876   3.613   8.420
  355DIO    C2419858   7.619   3.761   8.389
  355DIO    C2519859   7.528   3.859   8.313
  355DIO    C2619860   7.489   3.982   8.393
  355DIO     H119861   9.210   3.686   8.439
  355DIO     H219862   9.169   4.126   8.468
  355DIO     H319863   8.992   4.034   8.266
  355DIO     H419864   8.741   4.009   8.249
  355DIO     H519865   8.741   3.726   8.582
  355DIO     H619866   8.132   3.847   8.187
  355DIO     H719867   8.120   3.542   8.502
  355DIO     H819868   7.963   3.586   8.240
  355DIO     H919869   7.927   3.927   8.374
  355DIO    H1019870   7.787   3.950   8.271
  355DIO    H1119871   7.729   3.900   8.514
  355DIO    H1219872   7.771   3.661   8.589
  355DIO    H1319873   7.918   3.755   8.565
  355DIO    H1419874   7.638   3.675   8.324
  355DIO    H1519875   7.562   3.722   8.475
  355DIO    H1619876   7.575   3.889   8.219
  355DIO    H1719877   7.436   3.805   8.285
  355DIO    H1819878   7.446   3.955   8.489
  355DIO    H1919879   7.576   4.047   8.411
  355DIO    H2019880   7.416   4.041   8.337
  356DIO     F119881   2.415   5.001   4.158
  356DIO     C119882   2.337   4.911   4.094
  356DIO     C219883   2.193   4.918   4.109
  356DIO     C319884   2.104   4.820   4.043
  356DIO     C419885   2.170   4.718   3.958
  356DIO     C519886   2.314   4.713   3.944
  356DIO     F219887   2.369   4.621   3.863
  356DIO     C619888   2.398   4.809   4.011
  356DIO     F319889   2.531   4.803   3.999
  356DIO     C719890   1.958   4.825   4.058
  356DIO     C819891   1.881   4.704   4.095
  356DIO     C919892   1.736   4.708   4.110
  356DIO    C1019893   1.663   4.830   4.078
  356DIO    C1119894   1.736   4.952   4.049
  356DIO    C1219895   1.880   4.948   4.037
  356DIO     F419896   1.945   5.062   4.004
  356DIO     O119897   1.531   4.834   4.117
  356DIO    C1319898   1.437   4.903   4.041
  356DIO     O219899   1.436   4.943   3.922
  356DIO    C1419900   1.308   4.915   4.110
  356DIO    C1519901   1.241   4.799   4.173
  356DIO     F519902   1.304   4.679   4.177
  356DIO    C1619903   1.110   4.808   4.235
  356DIO    C1719904   1.035   4.932   4.231
  356DIO    C1819905   1.103   5.052   4.185
  356DIO    C1919906   1.235   5.043   4.124
  356DIO     F619907   1.298   5.160   4.097
  356DIO    C2019908   0.894   4.940   4.285
  356DIO     O319909   0.824   4.815   4.283
  356DIO    C2119910   0.781   4.779   4.153
  356DIO    C2219911   0.692   4.887   4.093
  356DIO    C2319912   0.772   5.017   4.096
  356DIO     O419913   0.817   5.046   4.228
  356DIO    C2419914   0.559   4.906   4.170
  356DIO    C2519915   0.468   4.783   4.178
  356DIO    C2619916   0.430   4.725   4.042
  356DIO     H119917   2.150   4.996   4.171
  356DIO     H219918   2.109   4.650   3.899
  356DIO     H319919   1.932   4.612   4.117
  356DIO     H419920   1.681   4.622   4.145
  356DIO     H519921   1.681   5.044   4.030
  356DIO     H619922   1.072   4.721   4.287
  356DIO     H719923   1.061   5.150   4.200
  356DIO     H819924   0.904   4.966   4.392
  356DIO     H919925   0.867   4.760   4.089
  356DIO    H1019926   0.728   4.683   4.161
  356DIO    H1119927   0.669   4.862   3.989
  356DIO    H1219928   0.711   5.101   4.062
  356DIO    H1319929   0.859   5.011   4.028
  356DIO    H1419930   0.579   4.940   4.272
  356DIO    H1519931   0.502   4.987   4.121
  356DIO    H1619932   0.516   4.704   4.238
  356DIO    H1719933   0.376   4.811   4.231
  356DIO    H1819934   0.386   4.802   3.978
  356DIO    H1919935   0.516   4.683   3.991
  356DIO    H2019936   0.356   4.645   4.055
  357DIO     F119937   3.962   9.827   4.109
  357DIO     C119938   3.885   9.813   4.000
  357DIO     C219939   3.740   9.807   4.016
  357DIO     C319940   3.652   9.790   3.898
  357DIO     C419941   3.717   9.783   3.766
  357DIO     C519942   3.861   9.790   3.753
  357DIO     F219943   3.917   9.787   3.630
  357DIO     C619944   3.945   9.805   3.869
  357DIO     F319945   4.079   9.811   3.856
  357DIO     C719946   3.505   9.781   3.912
  357DIO     C819947   3.428   9.672   3.848
  357DIO     C919948   3.283   9.665   3.861
  357DIO    C1019949   3.211   9.770   3.930
  357DIO    C1119950   3.283   9.875   4.000
  357DIO    C1219951   3.427   9.881   3.989
  357DIO     F419952   3.492   9.982   4.050
  357DIO     O119953   3.079   9.744   3.959
  357DIO    C1319954   2.984   9.846   3.958
  357DIO     O219955   2.983   9.962   3.907
  357DIO    C1419956   2.855   9.804   4.014
  357DIO    C1519957   2.789   9.679   3.971
  357DIO     F519958   2.851   9.595   3.885
  357DIO    C1619959   2.658   9.639   4.019
  357DIO    C1719960   2.582   9.726   4.108
  357DIO    C1819961   2.651   9.842   4.165
  357DIO    C1919962   2.783   9.881   4.118
  357DIO     F619963   2.845   9.980   4.185
  357DIO    C2019964   2.441   9.692   4.151
  357DIO     O319965   2.372   9.609   4.057
  357DIO    C2119966   2.328   9.680   3.942
  357DIO    C2219967   2.239   9.798   3.981
  357DIO    C2319968   2.320   9.883   4.079
  357DIO     O419969   2.364   9.806   4.190
  357DIO    C2419970   2.106   9.754   4.047
  357DIO    C2519971   2.016   9.665   3.962
  357DIO    C2619972   1.977   9.726   3.828
  357DIO     H119973   3.698   9.814   4.115
  357DIO     H219974   3.657   9.780   3.676
  357DIO     H319975   3.480   9.594   3.795
  357DIO     H419976   3.228   9.580   3.822
  357DIO     H519977   3.229   9.950   4.055
  357DIO     H619978   2.620   9.542   3.990
  357DIO     H719979   2.608   9.897   4.248
  357DIO     H819980   2.451   9.631   4.241
  357DIO     H919981   2.415   9.715   3.885
  357DIO    H1019982   2.275   9.610   3.877
  357DIO    H1119983   2.217   9.858   3.893
  357DIO    H1219984   2.259   9.965   4.118
  357DIO    H1319985   2.406   9.929   4.029
  357DIO    H1419986   2.126   9.701   4.141
  357DIO    H1519987   2.050   9.844   4.074
  357DIO    H1619988   2.063   9.567   3.945
  357DIO    H1719989   1.924   9.645   4.019
  357DIO    H1819990   1.933   9.826   3.841
  357DIO    H1919991   2.064   9.735   3.762
  357DIO    H2019992   1.904   9.663   3.778
  358DIO     F119993   4.877   8.137   8.147
  358DIO     C119994   4.799   8.043   8.090
  358DIO     C219995   4.655   8.051   8.105
  358DIO     C319996   4.566   7.949   8.046
  358DIO     C419997   4.632   7.840   7.969
  358DIO     C519998   4.776   7.834   7.956
  358DIO     F219999   4.832   7.736   7.882
  358DIO     C620000   4.860   7.935   8.015
  358DIO     F320001   4.994   7.928   8.003
  358DIO     C720002   4.420   7.954   8.060
  358DIO     C820003   4.343   7.837   8.107
  358DIO     C920004   4.198   7.842   8.121
  358DIO    C1020005   4.126   7.961   8.080
  358DIO    C1120006   4.198   8.081   8.041
  358DIO    C1220007   4.342   8.076   8.030
  358DIO     F420008   4.407   8.187   7.988
  358DIO     O120009   3.993   7.968   8.119
  358DIO    C1320010   3.899   8.031   8.038
  358DIO     O220011   3.898   8.062   7.916
  358DIO    C1420012   3.770   8.048   8.105
  358DIO    C1520013   3.703   7.937   8.177
  358DIO     F520014   3.766   7.818   8.190
  358DIO    C1620015   3.573   7.951   8.238
  358DIO    C1720016   3.497   8.075   8.225
  358DIO    C1820017   3.566   8.191   8.169
  358DIO    C1920018   3.697   8.177   8.109
  358DIO     F620019   3.760   8.291   8.073
  358DIO    C2020020   3.356   8.087   8.278
  358DIO     O320021   3.286   7.962   8.286
  358DIO    C2120022   3.243   7.915   8.159
  358DIO    C2220023   3.154   8.019   8.090
  358DIO    C2320024   3.235   8.148   8.083
  358DIO     O420025   3.279   8.188   8.213
  358DIO    C2420026   3.021   8.044   8.165
  358DIO    C2520027   2.930   7.921   8.183
  358DIO    C2620028   2.892   7.854   8.052
  358DIO     H120029   4.613   8.134   8.160
  358DIO     H220030   4.571   7.767   7.916
  358DIO     H320031   4.394   7.746   8.136
  358DIO     H420032   4.143   7.759   8.163
  358DIO     H520033   4.144   8.171   8.016
  358DIO     H620034   3.535   7.868   8.297
  358DIO     H720035   3.523   8.290   8.177
  358DIO     H820036   3.366   8.120   8.382
  358DIO     H920037   3.329   7.892   8.096
  358DIO    H1020038   3.190   7.821   8.174
  358DIO    H1120039   3.131   7.986   7.988
  358DIO    H1220040   3.174   8.230   8.043
  358DIO    H1320041   3.321   8.137   8.016
  358DIO    H1420042   3.041   8.085   8.265
  358DIO    H1520043   2.965   8.120   8.111
  358DIO    H1620044   2.978   7.848   8.249
  358DIO    H1720045   2.839   7.954   8.234
  358DIO    H1820046   2.848   7.926   7.982
  358DIO    H1920047   2.979   7.807   8.004
  358DIO    H2020048   2.818   7.775   8.071
  359DIO     F120049   9.441   6.306   3.962
  359DIO     C120050   9.364   6.402   4.017
  359DIO     C220051   9.220   6.393   4.002
  359DIO     C320052   9.131   6.497   4.059
  359DIO     C420053   9.196   6.607   4.133
  359DIO     C520054   9.341   6.613   4.147
  359DIO     F220055   9.396   6.713   4.218
  359DIO     C620056   9.424   6.511   4.089
  359DIO     F320057   9.558   6.518   4.101
  359DIO     C720058   8.984   6.491   4.044
  359DIO     C820059   8.907   6.608   3.995
  359DIO     C920060   8.763   6.602   3.981
  359DIO    C1020061   8.690   6.484   4.025
  359DIO    C1120062   8.762   6.365   4.066
  359DIO    C1220063   8.907   6.370   4.077
  359DIO     F420064   8.971   6.260   4.121
  359DIO     O120065   8.558   6.476   3.986
  359DIO    C1320066   8.463   6.415   4.068
  359DIO     O220067   8.462   6.386   4.191
  359DIO    C1420068   8.334   6.396   4.001
  359DIO    C1520069   8.268   6.506   3.927
  359DIO     F520070   8.330   6.624   3.912
  359DIO    C1620071   8.137   6.491   3.866
  359DIO    C1720072   8.061   6.367   3.882
  359DIO    C1820073   8.130   6.253   3.940
  359DIO    C1920074   8.262   6.267   4.000
  359DIO     F620075   8.324   6.154   4.038
  359DIO    C2020076   7.921   6.354   3.829
  359DIO     O320077   7.851   6.479   3.819
  359DIO    C2120078   7.807   6.528   3.945
  359DIO    C2220079   7.718   6.426   4.015
  359DIO    C2320080   7.799   6.296   4.025
  359DIO     O420081   7.843   6.255   3.896
  359DIO    C2420082   7.585   6.400   3.941
  359DIO    C2520083   7.495   6.522   3.921
  359DIO    C2620084   7.456   6.591   4.051
  359DIO     H120085   9.177   6.309   3.948
  359DIO     H220086   9.136   6.681   4.185
  359DIO     H320087   8.959   6.698   3.965
  359DIO     H420088   8.707   6.684   3.938
  359DIO     H520089   8.708   6.276   4.093
  359DIO     H620090   8.099   6.573   3.806
  359DIO     H720091   8.087   6.153   3.934
  359DIO     H820092   7.930   6.319   3.726
  359DIO     H920093   7.894   6.553   4.007
  359DIO    H1020094   7.754   6.622   3.928
  359DIO    H1120095   7.696   6.461   4.117
  359DIO    H1220096   7.738   6.216   4.067
  359DIO    H1320097   7.885   6.309   4.092
  359DIO    H1420098   7.605   6.356   3.842
  359DIO    H1520099   7.529   6.324   3.997
  359DIO    H1620100   7.542   6.593   3.853
  359DIO    H1720101   7.403   6.488   3.871
  359DIO    H1820102   7.412   6.521   4.122
  359DIO    H1920103   7.543   6.639   4.098
  359DIO    H2020104   7.383   6.670   4.030
  360DIO     F120105   3.792   9.023   6.352
  360DIO     C120106   3.715   9.127   6.388
  360DIO     C220107   3.571   9.116   6.375
  360DIO     C320108   3.482   9.229   6.411
  360DIO     C420109   3.547   9.352   6.463
  360DIO     C520110   3.692   9.360   6.475
  360DIO     F220111   3.747   9.472   6.526
  360DIO     C620112   3.775   9.248   6.438
  360DIO     F320113   3.909   9.258   6.449
  360DIO     C720114   3.335   9.220   6.398
  360DIO     C820115   3.258   9.325   6.328
  360DIO     C920116   3.114   9.317   6.315
  360DIO    C1020117   3.041   9.210   6.380
  360DIO    C1120118   3.114   9.101   6.443
  360DIO    C1220119   3.258   9.108   6.454
  360DIO     F420120   3.323   9.008   6.518
  360DIO     O120121   2.909   9.195   6.344
  360DIO    C1320122   2.814   9.151   6.436
  360DIO     O220123   2.813   9.146   6.562
  360DIO    C1420124   2.685   9.119   6.374
  360DIO    C1520125   2.619   9.212   6.280
  360DIO     F520126   2.682   9.326   6.242
  360DIO    C1620127   2.488   9.186   6.223
  360DIO    C1720128   2.412   9.068   6.263
  360DIO    C1820129   2.481   8.966   6.341
  360DIO    C1920130   2.613   8.992   6.397
  360DIO     F620131   2.675   8.888   6.457
  360DIO    C2020132   2.272   9.045   6.213
  360DIO     O320133   2.202   9.165   6.179
  360DIO    C2120134   2.158   9.238   6.294
  360DIO    C2220135   2.069   9.151   6.382
  360DIO    C2320136   2.150   9.026   6.417
  360DIO     O420137   2.194   8.960   6.298
  360DIO    C2420138   1.937   9.111   6.314
  360DIO    C2520139   1.846   9.227   6.271
  360DIO    C2620140   1.807   9.320   6.385
  360DIO     H120141   3.528   9.024   6.338
  360DIO     H220142   3.487   9.434   6.500
  360DIO     H320143   3.310   9.408   6.280
  360DIO     H420144   3.059   9.389   6.256
  360DIO     H520145   3.059   9.018   6.487
  360DIO     H620146   2.450   9.255   6.148
  360DIO     H720147   2.438   8.868   6.355
  360DIO     H820148   2.281   8.990   6.118
  360DIO     H920149   2.245   9.274   6.350
  360DIO    H1020150   2.105   9.327   6.259
  360DIO    H1120151   2.047   9.205   6.475
  360DIO    H1220152   2.089   8.955   6.473
  360DIO    H1320153   2.236   9.051   6.480
  360DIO    H1420154   1.956   9.049   6.226
  360DIO    H1520155   1.880   9.047   6.384
  360DIO    H1620156   1.893   9.284   6.191
  360DIO    H1720157   1.754   9.184   6.228
  360DIO    H1820158   1.764   9.265   6.468
  360DIO    H1920159   1.894   9.376   6.422
  360DIO    H2020160   1.734   9.393   6.350
  361DIO     F120161   7.451   0.119   7.839
  361DIO     C120162   7.373   0.228   7.823
  361DIO     C220163   7.229   0.212   7.817
  361DIO     C320164   7.140   0.329   7.797
  361DIO     C420165   7.206   0.461   7.787
  361DIO     C520166   7.350   0.474   7.794
  361DIO     F220167   7.405   0.597   7.788
  361DIO     C620168   7.434   0.358   7.812
  361DIO     F320169   7.568   0.371   7.817
  361DIO     C720170   6.994   0.315   7.789
  361DIO     C820171   6.917   0.376   7.679
  361DIO     C920172   6.772   0.363   7.671
  361DIO    C1020173   6.699   0.297   7.778
  361DIO    C1120174   6.772   0.229   7.885
  361DIO    C1220175   6.916   0.241   7.891
  361DIO     F420176   6.981   0.182   7.993
  361DIO     O120177   6.567   0.267   7.753
  361DIO    C1320178   6.473   0.270   7.855
  361DIO     O220179   6.472   0.324   7.969
  361DIO    C1420180   6.344   0.214   7.815
  361DIO    C1520181   6.277   0.254   7.689
  361DIO     F520182   6.340   0.337   7.603
  361DIO    C1620183   6.147   0.204   7.650
  361DIO    C1720184   6.071   0.117   7.739
  361DIO    C1820185   6.140   0.063   7.856
  361DIO    C1920186   6.271   0.112   7.893
  361DIO     F620187   6.334   0.047   7.994
  361DIO    C2020188   5.930   0.074   7.705
  361DIO     O320189   5.860   0.166   7.620
  361DIO    C2120190   5.817   0.282   7.689
  361DIO    C2220191   5.728   0.246   7.807
  361DIO    C2320192   5.809   0.150   7.895
  361DIO     O420193   5.853   0.038   7.820
  361DIO    C2420194   5.595   0.179   7.765
  361DIO    C2520195   5.504   0.262   7.674
  361DIO    C2620196   5.466   0.397   7.732
  361DIO     H120197   7.186   0.113   7.827
  361DIO     H220198   7.145   0.551   7.782
  361DIO     H320199   6.968   0.427   7.599
  361DIO     H420200   6.717   0.400   7.586
  361DIO     H520201   6.718   0.176   7.961
  361DIO     H620202   6.108   0.231   7.552
  361DIO     H720203   6.097  -0.018   7.913
  361DIO     H820204   5.940  -0.018   7.647
  361DIO     H920205   5.903   0.340   7.722
  361DIO    H1020206   5.764   0.346   7.617
  361DIO    H1120207   5.705   0.336   7.865
  361DIO    H1220208   5.747   0.113   7.978
  361DIO    H1320209   5.895   0.202   7.940
  361DIO    H1420210   5.615   0.084   7.715
  361DIO    H1520211   5.539   0.154   7.856
  361DIO    H1620212   5.552   0.277   7.576
  361DIO    H1720213   5.413   0.205   7.655
  361DIO    H1820214   5.422   0.387   7.832
  361DIO    H1920215   5.552   0.464   7.739
  361DIO    H2020216   5.392   0.446   7.667
  362DIO     F120217   4.473   5.423   6.073
  362DIO     C120218   4.396   5.524   6.031
  362DIO     C220219   4.252   5.507   6.029
  362DIO     C320220   4.163   5.616   5.981
  362DIO     C420221   4.228   5.742   5.938
  362DIO     C520222   4.373   5.756   5.942
  362DIO     F220223   4.428   5.873   5.906
  362DIO     C620224   4.456   5.648   5.988
  362DIO     F320225   4.590   5.662   5.990
  362DIO     C720226   4.016   5.600   5.977
  362DIO     C820227   3.939   5.632   5.855
  362DIO     C920228   3.795   5.618   5.851
  362DIO    C1020229   3.722   5.580   5.971
  362DIO    C1120230   3.794   5.541   6.090
  362DIO    C1220231   3.939   5.553   6.093
  362DIO     F420232   4.003   5.521   6.207
  362DIO     O120233   3.590   5.545   5.953
  362DIO    C1320234   3.495   5.574   6.052
  362DIO     O220235   3.494   5.653   6.149
  362DIO    C1420236   3.366   5.509   6.026
  362DIO    C1520237   3.300   5.516   5.894
  362DIO     F520238   3.362   5.576   5.790
  362DIO    C1620239   3.169   5.459   5.869
  362DIO    C1720240   3.093   5.397   5.977
  362DIO    C1820241   3.162   5.373   6.103
  362DIO    C1920242   3.294   5.429   6.128
  362DIO     F620243   3.356   5.391   6.241
  362DIO    C2020244   2.953   5.346   5.955
  362DIO     O320245   2.883   5.414   5.849
  362DIO    C2120246   2.839   5.544   5.887
  362DIO    C2220247   2.750   5.538   6.011
  362DIO    C2320248   2.831   5.467   6.120
  362DIO     O420249   2.875   5.339   6.075
  362DIO    C2420250   2.617   5.463   5.987
  362DIO    C2520251   2.527   5.521   5.878
  362DIO    C2620252   2.488   5.666   5.901
  362DIO     H120253   4.209   5.414   6.063
  362DIO     H220254   4.168   5.828   5.912
  362DIO     H320255   3.991   5.662   5.764
  362DIO     H420256   3.739   5.633   5.759
  362DIO     H520257   3.740   5.508   6.178
  362DIO     H620258   3.131   5.460   5.767
  362DIO     H720259   3.119   5.308   6.178
  362DIO     H820260   2.962   5.243   5.920
  362DIO     H920261   2.926   5.608   5.905
  362DIO    H1020262   2.786   5.588   5.802
  362DIO    H1120263   2.728   5.640   6.045
  362DIO    H1220264   2.770   5.452   6.209
  362DIO    H1320265   2.917   5.528   6.150
  362DIO    H1420266   2.637   5.358   5.962
  362DIO    H1520267   2.561   5.461   6.081
  362DIO    H1620268   2.574   5.511   5.780
  362DIO    H1720269   2.435   5.461   5.874
  362DIO    H1820270   2.444   5.680   6.000
  362DIO    H1920271   2.575   5.733   5.892
  362DIO    H2020272   2.415   5.698   5.826
  363DIO     F120273   6.959   7.761   8.840
  363DIO     C120274   6.882   7.741   8.948
  363DIO     C220275   6.737   7.752   8.935
  363DIO     C320276   6.649   7.732   9.052
  363DIO     C420277   6.714   7.699   9.181
  363DIO     C520278   6.858   7.688   9.191
  363DIO     F220279   6.914   7.653   9.309
  363DIO     C620280   6.942   7.708   9.075
  363DIO     F320281   7.076   7.699   9.086
  363DIO     C720282   6.502   7.744   9.042
  363DIO     C820283   6.425   7.829   9.136
  363DIO     C920284   6.280   7.840   9.125
  363DIO    C1020285   6.208   7.760   9.028
  363DIO    C1120286   6.280   7.682   8.930
  363DIO    C1220287   6.424   7.673   8.938
  363DIO     F420288   6.489   7.595   8.849
  363DIO     O120289   6.076   7.794   9.008
  363DIO    C1320290   5.981   7.696   8.978
  363DIO     O220291   5.980   7.571   8.991
  363DIO    C1420292   5.852   7.753   8.938
  363DIO    C1520293   5.786   7.859   9.017
  363DIO     F520294   5.848   7.913   9.124
  363DIO    C1620295   5.655   7.912   8.983
  363DIO    C1720296   5.579   7.856   8.871
  363DIO    C1820297   5.648   7.764   8.782
  363DIO    C1920298   5.780   7.712   8.816
  363DIO     F620299   5.842   7.639   8.721
  363DIO    C2020300   5.438   7.902   8.842
  363DIO     O320301   5.369   7.953   8.956
  363DIO    C2120302   5.325   7.850   9.044
  363DIO    C2220303   5.236   7.750   8.971
  363DIO    C2320304   5.317   7.698   8.852
  363DIO     O420305   5.361   7.806   8.770
  363DIO    C2420306   5.103   7.811   8.921
  363DIO    C2520307   5.013   7.870   9.030
  363DIO    C2620308   4.974   7.771   9.138
  363DIO     H120309   6.695   7.775   8.839
  363DIO     H220310   6.654   7.674   9.267
  363DIO     H320311   6.477   7.887   9.210
  363DIO     H420312   6.225   7.908   9.189
  363DIO     H520313   6.226   7.627   8.854
  363DIO     H620314   5.617   7.996   9.040
  363DIO     H720315   5.605   7.736   8.687
  363DIO     H820316   5.448   7.988   8.774
  363DIO     H920317   5.412   7.799   9.088
  363DIO    H1020318   5.272   7.897   9.127
  363DIO    H1120319   5.214   7.666   9.037
  363DIO    H1220320   5.256   7.632   8.789
  363DIO    H1320321   5.403   7.639   8.886
  363DIO    H1420322   5.123   7.890   8.847
  363DIO    H1520323   5.047   7.734   8.868
  363DIO    H1620324   5.060   7.958   9.075
  363DIO    H1720325   4.921   7.907   8.982
  363DIO    H1820326   4.930   7.681   9.096
  363DIO    H1920327   5.061   7.743   9.199
  363DIO    H2020328   4.901   7.816   9.206
  364DIO     F120329   2.680   2.752   8.173
  364DIO     C120330   2.602   2.699   8.269
  364DIO     C220331   2.458   2.714   8.260
  364DIO     C320332   2.369   2.658   8.365
  364DIO     C420333   2.435   2.586   8.477
  364DIO     C520334   2.579   2.573   8.483
  364DIO     F220335   2.634   2.503   8.584
  364DIO     C620336   2.663   2.629   8.379
  364DIO     F320337   2.796   2.617   8.387
  364DIO     C720338   2.223   2.673   8.359
  364DIO     C820339   2.146   2.724   8.474
  364DIO     C920340   2.001   2.738   8.468
  364DIO    C1020341   1.928   2.693   8.351
  364DIO    C1120342   2.001   2.649   8.233
  364DIO    C1220343   2.145   2.638   8.238
  364DIO     F420344   2.210   2.592   8.129
  364DIO     O120345   1.796   2.731   8.343
  364DIO    C1320346   1.702   2.648   8.283
  364DIO     O220347   1.701   2.525   8.257
  364DIO    C1420348   1.572   2.714   8.263
  364DIO    C1520349   1.506   2.790   8.372
  364DIO     F520350   1.569   2.808   8.490
  364DIO    C1620351   1.375   2.851   8.356
  364DIO    C1720352   1.300   2.833   8.232
  364DIO    C1820353   1.368   2.773   8.119
  364DIO    C1920354   1.500   2.714   8.134
  364DIO     F620355   1.562   2.673   8.021
  364DIO    C2020356   1.159   2.886   8.218
  364DIO     O320357   1.089   2.898   8.343
  364DIO    C2120358   1.045   2.773   8.394
  364DIO    C2220359   0.957   2.701   8.293
  364DIO    C2320360   1.037   2.689   8.164
  364DIO     O420361   1.082   2.817   8.120
  364DIO    C2420362   0.824   2.775   8.266
  364DIO    C2520363   0.733   2.797   8.387
  364DIO    C2620364   0.695   2.669   8.459
  364DIO     H120365   2.415   2.766   8.176
  364DIO     H220366   2.374   2.535   8.551
  364DIO     H320367   2.197   2.756   8.564
  364DIO     H420368   1.946   2.783   8.550
  364DIO     H520369   1.946   2.621   8.144
  364DIO     H620370   1.337   2.913   8.436
  364DIO     H720371   1.325   2.777   8.019
  364DIO     H820372   1.169   2.989   8.181
  364DIO     H920373   1.132   2.711   8.420
  364DIO    H1020374   0.993   2.791   8.488
  364DIO    H1120375   0.934   2.600   8.330
  364DIO    H1220376   0.976   2.645   8.084
  364DIO    H1320377   1.123   2.622   8.178
  364DIO    H1420378   0.844   2.873   8.220
  364DIO    H1520379   0.767   2.718   8.191
  364DIO    H1620380   0.780   2.866   8.458
  364DIO    H1720381   0.641   2.846   8.353
  364DIO    H1820382   0.651   2.596   8.390
  364DIO    H1920383   0.781   2.622   8.508
  364DIO    H2020384   0.621   2.690   8.537
  365DIO     F120385   8.894   0.211   6.697
  365DIO     C120386   8.816   0.234   6.589
  365DIO     C220387   8.672   0.223   6.602
  365DIO     C320388   8.583   0.246   6.485
  365DIO     C420389   8.649   0.284   6.358
  365DIO     C520390   8.793   0.295   6.348
  365DIO     F220391   8.849   0.333   6.231
  365DIO     C620392   8.877   0.271   6.463
  365DIO     F320393   9.011   0.280   6.453
  365DIO     C720394   8.437   0.234   6.496
  365DIO     C820395   8.360   0.152   6.399
  365DIO     C920396   8.215   0.140   6.409
  365DIO    C1020397   8.143   0.217   6.508
  365DIO    C1120398   8.215   0.292   6.609
  365DIO    C1220399   8.359   0.302   6.601
  365DIO     F420400   8.424   0.377   6.693
  365DIO     O120401   8.010   0.183   6.527
  365DIO    C1320402   7.916   0.280   6.561
  365DIO     O220403   7.915   0.405   6.551
  365DIO    C1420404   7.787   0.221   6.599
  365DIO    C1520405   7.721   0.118   6.517
  365DIO     F520406   7.783   0.067   6.408
  365DIO    C1620407   7.590   0.064   6.549
  365DIO    C1720408   7.514   0.116   6.662
  365DIO    C1820409   7.583   0.206   6.754
  365DIO    C1920410   7.714   0.259   6.722
  365DIO     F620411   7.777   0.329   6.819
  365DIO    C2020412   7.373   0.070   6.691
  365DIO     O320413   7.304   0.022   6.575
  365DIO    C2120414   7.260   0.128   6.490
  365DIO    C2220415   7.171   0.226   6.566
  365DIO    C2320416   7.252   0.274   6.687
  365DIO     O420417   7.296   0.164   6.766
  365DIO    C2420418   7.038   0.163   6.614
  365DIO    C2520419   6.948   0.107   6.504
  365DIO    C2620420   6.909   0.210   6.398
  365DIO     H120421   8.630   0.197   6.698
  365DIO     H220422   8.588   0.311   6.272
  365DIO     H320423   8.411   0.096   6.323
  365DIO     H420424   8.160   0.074   6.344
  365DIO     H520425   8.161   0.345   6.686
  365DIO     H620426   7.552  -0.018   6.490
  365DIO     H720427   7.540   0.231   6.851
  365DIO     H820428   7.383  -0.018   6.756
  365DIO     H920429   7.347   0.180   6.448
  365DIO    H1020430   7.207   0.084   6.405
  365DIO    H1120431   7.148   0.312   6.503
  365DIO    H1220432   7.191   0.338   6.751
  365DIO    H1320433   7.338   0.334   6.655
  365DIO    H1420434   7.058   0.082   6.685
  365DIO    H1520435   6.982   0.239   6.669
  365DIO    H1620436   6.995   0.021   6.455
  365DIO    H1720437   6.856   0.069   6.550
  365DIO    H1820438   6.865   0.299   6.444
  365DIO    H1920439   6.996   0.240   6.338
  365DIO    H2020440   6.835   0.167   6.329
  366DIO     F120441   7.110   7.637   4.827
  366DIO     C120442   7.033   7.742   4.861
  366DIO     C220443   6.889   7.731   4.848
  366DIO     C320444   6.800   7.844   4.882
  366DIO     C420445   6.865   7.968   4.931
  366DIO     C520446   7.010   7.976   4.943
  366DIO     F220447   7.065   8.089   4.992
  366DIO     C620448   7.093   7.864   4.908
  366DIO     F320449   7.227   7.874   4.919
  366DIO     C720450   6.653   7.835   4.869
  366DIO     C820451   6.576   7.939   4.796
  366DIO     C920452   6.432   7.930   4.784
  366DIO    C1020453   6.359   7.824   4.851
  366DIO    C1120454   6.431   7.716   4.916
  366DIO    C1220455   6.576   7.724   4.927
  366DIO     F420456   6.640   7.626   4.992
  366DIO     O120457   6.227   7.808   4.815
  366DIO    C1320458   6.132   7.766   4.908
  366DIO     O220459   6.131   7.764   5.034
  366DIO    C1420460   6.003   7.733   4.847
  366DIO    C1520461   5.937   7.825   4.751
  366DIO     F520462   5.999   7.938   4.711
  366DIO    C1620463   5.806   7.798   4.695
  366DIO    C1720464   5.730   7.680   4.736
  366DIO    C1820465   5.799   7.580   4.817
  366DIO    C1920466   5.931   7.607   4.872
  366DIO     F620467   5.993   7.504   4.933
  366DIO    C2020468   5.590   7.656   4.687
  366DIO     O320469   5.520   7.776   4.651
  366DIO    C2120470   5.476   7.850   4.764
  366DIO    C2220471   5.387   7.765   4.854
  366DIO    C2320472   5.468   7.641   4.891
  366DIO     O420473   5.512   7.573   4.774
  366DIO    C2420474   5.254   7.724   4.787
  366DIO    C2520475   5.164   7.839   4.742
  366DIO    C2620476   5.125   7.935   4.854
  366DIO     H120477   6.846   7.637   4.813
  366DIO     H220478   6.805   8.050   4.967
  366DIO     H320479   6.628   8.020   4.747
  366DIO     H420480   6.376   8.001   4.724
  366DIO     H520481   6.377   7.635   4.961
  366DIO     H620482   5.768   7.865   4.618
  366DIO     H720483   5.756   7.482   4.832
  366DIO     H820484   5.599   7.600   4.593
  366DIO     H920485   5.563   7.888   4.820
  366DIO    H1020486   5.423   7.939   4.728
  366DIO    H1120487   5.365   7.821   4.946
  366DIO    H1220488   5.407   7.571   4.949
  366DIO    H1320489   5.554   7.667   4.954
  366DIO    H1420490   5.274   7.661   4.700
  366DIO    H1520491   5.198   7.662   4.857
  366DIO    H1620492   5.211   7.895   4.660
  366DIO    H1720493   5.072   7.796   4.700
  366DIO    H1820494   5.081   7.881   4.938
  366DIO    H1920495   5.212   7.991   4.890
  366DIO    H2020496   5.052   8.007   4.818
  367DIO     F120497   8.129   2.914   9.053
  367DIO     C120498   8.052   3.021   9.075
  367DIO     C220499   7.908   3.009   9.064
  367DIO     C320500   7.819   3.125   9.085
  367DIO     C420501   7.884   3.254   9.120
  367DIO     C520502   8.029   3.264   9.131
  367DIO     F220503   8.084   3.381   9.167
  367DIO     C620504   8.112   3.148   9.109
  367DIO     F320505   8.246   3.159   9.118
  367DIO     C720506   7.673   3.115   9.073
  367DIO     C820507   7.595   3.210   8.989
  367DIO     C920508   7.451   3.200   8.978
  367DIO    C1020509   7.378   3.102   9.056
  367DIO    C1120510   7.451   3.002   9.133
  367DIO    C1220511   7.595   3.011   9.143
  367DIO     F420512   7.660   2.921   9.219
  367DIO     O120513   7.246   3.082   9.023
  367DIO    C1320514   7.151   3.051   9.120
  367DIO     O220515   7.151   3.063   9.245
  367DIO    C1420516   7.022   3.011   9.062
  367DIO    C1520517   6.956   3.092   8.957
  367DIO     F520518   7.019   3.199   8.904
  367DIO    C1620519   6.825   3.058   8.904
  367DIO    C1720520   6.749   2.946   8.959
  367DIO    C1820521   6.818   2.856   9.050
  367DIO    C1920522   6.950   2.889   9.102
  367DIO     F620523   7.012   2.793   9.174
  367DIO    C2020524   6.609   2.917   8.912
  367DIO     O320525   6.539   3.032   8.863
  367DIO    C2120526   6.495   3.118   8.967
  367DIO    C2220527   6.406   3.044   9.066
  367DIO    C2320528   6.487   2.924   9.117
  367DIO     O420529   6.531   2.844   9.008
  367DIO    C2420530   6.274   2.995   9.004
  367DIO    C2520531   6.183   3.105   8.946
  367DIO    C2620532   6.145   3.212   9.047
  367DIO     H120533   7.865   2.912   9.040
  367DIO     H220534   7.824   3.340   9.146
  367DIO     H320535   7.647   3.285   8.931
  367DIO     H420536   7.396   3.264   8.910
  367DIO     H520537   7.396   2.926   9.188
  367DIO     H620538   6.787   3.116   8.821
  367DIO     H720539   6.775   2.760   9.076
  367DIO     H820540   6.618   2.850   8.826
  367DIO     H920541   6.582   3.162   9.018
  367DIO    H1020542   6.443   3.202   8.921
  367DIO    H1120543   6.384   3.110   9.151
  367DIO    H1220544   6.426   2.862   9.182
  367DIO    H1320545   6.573   2.958   9.176
  367DIO    H1420546   6.294   2.923   8.924
  367DIO    H1520547   6.217   2.941   9.081
  367DIO    H1620548   6.230   3.151   8.859
  367DIO    H1720549   6.091   3.057   8.909
  367DIO    H1820550   6.101   3.168   9.137
  367DIO    H1920551   6.231   3.272   9.076
  367DIO    H2020552   6.071   3.280   9.002
  368DIO     F120553   9.723   6.658   0.270
  368DIO     C120554   9.646   6.557   0.226
  368DIO     C220555   9.501   6.567   0.240
  368DIO     C320556   9.413   6.457   0.196
  368DIO     C420557   9.478   6.339   0.136
  368DIO     C520558   9.622   6.331   0.123
  368DIO     F220559   9.678   6.223   0.064
  368DIO     C620560   9.706   6.440   0.168
  368DIO     F320561   9.840   6.431   0.157
  368DIO     C720562   9.266   6.465   0.210
  368DIO     C820563   9.189   6.355   0.273
  368DIO     C920564   9.044   6.362   0.286
  368DIO    C1020565   8.972   6.474   0.229
  368DIO    C1120566   9.044   6.587   0.173
  368DIO    C1220567   9.188   6.581   0.162
  368DIO     F420568   9.253   6.685   0.106
  368DIO     O120569   8.840   6.487   0.266
  368DIO    C1320570   8.745   6.537   0.177
  368DIO     O220571   8.744   6.551   0.052
  368DIO    C1420572   8.616   6.564   0.241
  368DIO    C1520573   8.550   6.464   0.328
  368DIO     F520574   8.612   6.349   0.358
  368DIO    C1620575   8.419   6.486   0.387
  368DIO    C1720576   8.343   6.607   0.356
  368DIO    C1820577   8.412   6.714   0.285
  368DIO    C1920578   8.544   6.692   0.227
  368DIO     F620579   8.606   6.800   0.175
  368DIO    C2020580   8.202   6.627   0.407
  368DIO     O320581   8.133   6.504   0.432
  368DIO    C2120582   8.089   6.440   0.313
  368DIO    C2220583   8.000   6.533   0.231
  368DIO    C2320584   8.081   6.660   0.205
  368DIO     O420585   8.125   6.717   0.328
  368DIO    C2420586   7.867   6.568   0.301
  368DIO    C2520587   7.777   6.449   0.336
  368DIO    C2620588   7.738   6.364   0.216
  368DIO     H120589   9.459   6.657   0.283
  368DIO     H220590   9.418   6.260   0.093
  368DIO     H320591   9.241   6.270   0.314
  368DIO     H420592   8.989   6.286   0.339
  368DIO     H520593   8.990   6.673   0.136
  368DIO     H620594   8.381   6.413   0.457
  368DIO     H720595   8.369   6.813   0.278
  368DIO     H820596   8.212   6.675   0.505
  368DIO     H920597   8.176   6.408   0.254
  368DIO    H1020598   8.036   6.349   0.341
  368DIO    H1120599   7.978   6.486   0.134
  368DIO    H1220600   8.020   6.735   0.154
  368DIO    H1320601   8.167   6.640   0.141
  368DIO    H1420602   7.887   6.623   0.394
  368DIO    H1520603   7.811   6.637   0.237
  368DIO    H1620604   7.824   6.386   0.412
  368DIO    H1720605   7.685   6.489   0.382
  368DIO    H1820606   7.694   6.426   0.136
  368DIO    H1920607   7.825   6.311   0.175
  368DIO    H2020608   7.665   6.289   0.245
  369DIO     F120609   5.926   8.761   1.702
  369DIO     C120610   5.848   8.858   1.651
  369DIO     C220611   5.704   8.841   1.650
  369DIO     C320612   5.615   8.945   1.593
  369DIO     C420613   5.681   9.066   1.539
  369DIO     C520614   5.825   9.081   1.541
  369DIO     F220615   5.881   9.195   1.495
  369DIO     C620616   5.909   8.978   1.597
  369DIO     F320617   6.043   8.992   1.598
  369DIO     C720618   5.469   8.929   1.590
  369DIO     C820619   5.392   8.950   1.466
  369DIO     C920620   5.247   8.935   1.463
  369DIO    C1020621   5.175   8.909   1.586
  369DIO    C1120622   5.247   8.880   1.708
  369DIO    C1220623   5.391   8.893   1.710
  369DIO     F420624   5.456   8.871   1.827
  369DIO     O120625   5.042   8.872   1.572
  369DIO    C1320626   4.948   8.909   1.667
  369DIO     O220627   4.947   8.998   1.757
  369DIO    C1420628   4.819   8.842   1.648
  369DIO    C1520629   4.753   8.838   1.515
  369DIO     F520630   4.815   8.888   1.407
  369DIO    C1620631   4.622   8.779   1.495
  369DIO    C1720632   4.546   8.726   1.608
  369DIO    C1820633   4.615   8.714   1.736
  369DIO    C1920634   4.746   8.772   1.756
  369DIO     F620635   4.809   8.744   1.872
  369DIO    C2020636   4.405   8.674   1.591
  369DIO     O320637   4.336   8.732   1.480
  369DIO    C2120638   4.292   8.865   1.506
  369DIO    C2220639   4.203   8.870   1.630
  369DIO    C2320640   4.284   8.809   1.745
  369DIO     O420641   4.328   8.678   1.711
  369DIO    C2420642   4.070   8.793   1.613
  369DIO    C2520643   3.980   8.841   1.499
  369DIO    C2620644   3.941   8.988   1.509
  369DIO     H120645   5.662   8.751   1.693
  369DIO     H220646   5.620   9.150   1.505
  369DIO     H320647   5.443   8.972   1.373
  369DIO     H420648   5.192   8.942   1.370
  369DIO     H520649   5.193   8.855   1.798
  369DIO     H620650   4.584   8.771   1.394
  369DIO     H720651   4.572   8.656   1.817
  369DIO     H820652   4.415   8.568   1.566
  369DIO     H920653   4.379   8.931   1.518
  369DIO    H1020654   4.239   8.901   1.417
  369DIO    H1120655   4.180   8.974   1.654
  369DIO    H1220656   4.223   8.802   1.835
  369DIO    H1320657   4.370   8.873   1.770
  369DIO    H1420658   4.090   8.686   1.597
  369DIO    H1520659   4.014   8.800   1.706
  369DIO    H1620660   4.027   8.822   1.402
  369DIO    H1720661   3.888   8.781   1.500
  369DIO    H1820662   3.897   9.011   1.606
  369DIO    H1920663   4.028   9.053   1.493
  369DIO    H2020664   3.867   9.013   1.432
  370DIO     F120665   9.398   1.229   7.587
  370DIO     C120666   9.321   1.202   7.480
  370DIO     C220667   9.177   1.198   7.497
  370DIO     C320668   9.088   1.166   7.383
  370DIO     C420669   9.153   1.142   7.252
  370DIO     C520670   9.298   1.148   7.238
  370DIO     F220671   9.353   1.129   7.117
  370DIO     C620672   9.381   1.178   7.352
  370DIO     F320673   9.515   1.182   7.338
  370DIO     C720674   8.942   1.160   7.397
  370DIO     C820675   8.864   1.043   7.348
  370DIO     C920676   8.720   1.037   7.362
  370DIO    C1020677   8.647   1.151   7.416
  370DIO    C1120678   8.720   1.263   7.472
  370DIO    C1220679   8.864   1.268   7.461
  370DIO     F420680   8.929   1.376   7.509
  370DIO     O120681   8.515   1.129   7.448
  370DIO    C1320682   8.420   1.230   7.435
  370DIO     O220683   8.420   1.338   7.370
  370DIO    C1420684   8.291   1.195   7.495
  370DIO    C1520685   8.225   1.066   7.468
  370DIO     F520686   8.288   0.972   7.394
  370DIO    C1620687   8.094   1.032   7.521
  370DIO    C1720688   8.018   1.130   7.599
  370DIO    C1820689   8.087   1.251   7.641
  370DIO    C1920690   8.219   1.284   7.589
  370DIO     F620691   8.281   1.391   7.643
  370DIO    C2020692   7.878   1.101   7.645
  370DIO     O320693   7.808   1.007   7.563
  370DIO    C2120694   7.764   1.063   7.440
  370DIO    C2220695   7.675   1.185   7.464
  370DIO    C2320696   7.756   1.282   7.550
  370DIO     O420697   7.800   1.219   7.670
  370DIO    C2420698   7.543   1.150   7.535
  370DIO    C2520699   7.452   1.050   7.461
  370DIO    C2620700   7.414   1.094   7.321
  370DIO     H120701   9.134   1.218   7.594
  370DIO     H220702   9.093   1.128   7.163
  370DIO     H320703   8.916   0.959   7.305
  370DIO     H420704   8.665   0.949   7.333
  370DIO     H520705   8.665   1.345   7.518
  370DIO     H620706   8.056   0.932   7.505
  370DIO     H720707   8.044   1.317   7.716
  370DIO     H820708   7.887   1.052   7.743
  370DIO     H920709   7.851   1.090   7.379
  370DIO    H1020710   7.712   0.985   7.384
  370DIO    H1120711   7.653   1.233   7.368
  370DIO    H1220712   7.695   1.368   7.578
  370DIO    H1320713   7.842   1.321   7.494
  370DIO    H1420714   7.563   1.109   7.635
  370DIO    H1520715   7.486   1.242   7.550
  370DIO    H1620716   7.499   0.951   7.457
  370DIO    H1720717   7.360   1.038   7.520
  370DIO    H1820718   7.370   1.194   7.321
  370DIO    H1920719   7.500   1.095   7.254
  370DIO    H2020720   7.340   1.025   7.279
  371DIO     F120721   9.955   9.646   5.905
  371DIO     C120722   9.877   9.699   6.002
  371DIO     C220723   9.733   9.700   5.985
  371DIO     C320724   9.644   9.759   6.087
  371DIO     C420725   9.710   9.815   6.208
  371DIO     C520726   9.854   9.813   6.223
  371DIO     F220727   9.910   9.861   6.336
  371DIO     C620728   9.938   9.755   6.120
  371DIO     F320729  10.072   9.755   6.135
  371DIO     C720730   9.498   9.762   6.072
  371DIO     C820731   9.421   9.887   6.090
  371DIO     C920732   9.276   9.889   6.075
  371DIO    C1020733   9.204   9.766   6.051
  371DIO    C1120734   9.276   9.643   6.025
  371DIO    C1220735   9.420   9.641   6.037
  371DIO     F420736   9.485   9.524   6.018
  371DIO     O120737   9.071   9.779   6.014
  371DIO    C1320738   8.977   9.684   6.053
  371DIO     O220739   8.976   9.596   6.143
  371DIO    C1420740   8.848   9.703   5.986
  371DIO    C1520741   8.781   9.835   5.979
  371DIO     F520742   8.844   9.944   6.027
  371DIO    C1620743   8.651   9.854   5.920
  371DIO    C1720744   8.575   9.740   5.869
  371DIO    C1820745   8.644   9.612   5.859
  371DIO    C1920746   8.775   9.593   5.918
  371DIO     F620747   8.838   9.476   5.892
  371DIO    C2020748   8.434   9.756   5.817
  371DIO     O320749   8.364   9.868   5.873
  371DIO    C2120750   8.321   9.844   6.006
  371DIO    C2220751   8.232   9.721   6.013
  371DIO    C2320752   8.313   9.605   5.955
  371DIO     O420753   8.357   9.636   5.823
  371DIO    C2420754   8.099   9.737   5.936
  371DIO    C2520755   8.008   9.851   5.982
  371DIO    C2620756   7.970   9.844   6.129
  371DIO     H120757   9.691   9.656   5.895
  371DIO     H220758   9.649   9.851   6.291
  371DIO     H320759   9.472   9.979   6.111
  371DIO     H420760   9.221   9.982   6.081
  371DIO     H520761   9.222   9.552   6.002
  371DIO     H620762   8.613   9.955   5.910
  371DIO     H720763   8.601   9.530   5.803
  371DIO     H820764   8.444   9.779   5.710
  371DIO     H920765   8.407   9.833   6.072
  371DIO    H1020766   8.268   9.934   6.041
  371DIO    H1120767   8.209   9.698   6.118
  371DIO    H1220768   8.252   9.514   5.949
  371DIO    H1320769   8.399   9.581   6.018
  371DIO    H1420770   8.119   9.751   5.829
  371DIO    H1520771   8.043   9.643   5.945
  371DIO    H1620772   8.056   9.948   5.962
  371DIO    H1720773   7.917   9.849   5.922
  371DIO    H1820774   7.926   9.747   6.154
  371DIO    H1920775   8.057   9.861   6.194
  371DIO    H2020776   7.896   9.922   6.153
  372DIO     F120777   8.437   8.970   1.309
  372DIO     C120778   8.359   9.032   1.400
  372DIO     C220779   8.215   9.031   1.383
  372DIO     C320780   8.126   9.099   1.480
  372DIO     C420781   8.192   9.166   1.595
  372DIO     C520782   8.336   9.165   1.610
  372DIO     F220783   8.392   9.223   1.718
  372DIO     C620784   8.420   9.098   1.513
  372DIO     F320785   8.554   9.099   1.527
  372DIO     C720786   7.980   9.100   1.464
  372DIO     C820787   7.903   9.226   1.471
  372DIO     C920788   7.758   9.227   1.456
  372DIO    C1020789   7.686   9.102   1.443
  372DIO    C1120790   7.758   8.977   1.428
  372DIO    C1220791   7.902   8.977   1.441
  372DIO     F420792   7.967   8.859   1.432
  372DIO     O120793   7.553   9.112   1.406
  372DIO    C1320794   7.459   9.021   1.453
  372DIO     O220795   7.458   8.942   1.550
  372DIO    C1420796   7.330   9.034   1.384
  372DIO    C1520797   7.264   9.165   1.366
  372DIO     F520798   7.326   9.278   1.404
  372DIO    C1620799   7.133   9.178   1.304
  372DIO    C1720800   7.057   9.060   1.264
  372DIO    C1820801   7.126   8.932   1.266
  372DIO    C1920802   7.257   8.919   1.326
  372DIO     F620803   7.320   8.800   1.310
  372DIO    C2020804   6.916   9.072   1.211
  372DIO     O320805   6.847   9.188   1.256
  372DIO    C2120806   6.803   9.177   1.391
  372DIO    C2220807   6.714   9.054   1.410
  372DIO    C2320808   6.795   8.934   1.362
  372DIO     O420809   6.839   8.953   1.227
  372DIO    C2420810   6.581   9.063   1.331
  372DIO    C2520811   6.491   9.182   1.367
  372DIO    C2620812   6.452   9.187   1.514
  372DIO     H120813   8.173   8.979   1.298
  372DIO     H220814   8.131   9.208   1.674
  372DIO     H320815   7.954   9.321   1.483
  372DIO     H420816   7.703   9.320   1.453
  372DIO     H520817   7.704   8.885   1.413
  372DIO     H620818   7.095   9.278   1.286
  372DIO     H720819   7.083   8.845   1.217
  372DIO     H820820   6.926   9.085   1.102
  372DIO     H920821   6.890   9.172   1.458
  372DIO    H1020822   6.750   9.269   1.418
  372DIO    H1120823   6.691   9.041   1.516
  372DIO    H1220824   6.734   8.843   1.364
  372DIO    H1320825   6.881   8.916   1.427
  372DIO    H1420826   6.601   9.067   1.223
  372DIO    H1520827   6.525   8.971   1.348
  372DIO    H1620828   6.538   9.276   1.338
  372DIO    H1720829   6.399   9.174   1.307
  372DIO    H1820830   6.408   9.093   1.547
  372DIO    H1920831   6.539   9.210   1.577
  372DIO    H2020832   6.378   9.267   1.530
  373DIO     F120833   8.401   0.946   3.116
  373DIO     C120834   8.324   1.050   3.079
  373DIO     C220835   8.180   1.033   3.076
  373DIO     C320836   8.091   1.144   3.034
  373DIO     C420837   8.156   1.272   2.998
  373DIO     C520838   8.301   1.286   3.002
  373DIO     F220839   8.356   1.405   2.973
  373DIO     C620840   8.384   1.176   3.043
  373DIO     F320841   8.518   1.190   3.045
  373DIO     C720842   7.944   1.129   3.029
  373DIO     C820843   7.867   1.167   2.908
  373DIO     C920844   7.723   1.153   2.904
  373DIO    C1020845   7.650   1.109   3.021
  373DIO    C1120846   7.723   1.063   3.139
  373DIO    C1220847   7.867   1.075   3.142
  373DIO     F420848   7.932   1.037   3.254
  373DIO     O120849   7.518   1.075   3.002
  373DIO    C1320850   7.423   1.098   3.102
  373DIO     O220851   7.422   1.172   3.204
  373DIO    C1420852   7.294   1.035   3.073
  373DIO    C1520853   7.228   1.050   2.942
  373DIO     F520854   7.291   1.114   2.841
  373DIO    C1620855   7.097   0.993   2.913
  373DIO    C1720856   7.021   0.925   3.017
  373DIO    C1820857   7.090   0.895   3.142
  373DIO    C1920858   7.222   0.949   3.170
  373DIO     F620859   7.284   0.905   3.281
  373DIO    C2020860   6.881   0.876   2.993
  373DIO     O320861   6.811   0.950   2.891
  373DIO    C2120862   6.767   1.077   2.936
  373DIO    C2220863   6.678   1.065   3.060
  373DIO    C2320864   6.759   0.988   3.164
  373DIO     O420865   6.803   0.863   3.112
  373DIO    C2420866   6.546   0.991   3.031
  373DIO    C2520867   6.455   1.055   2.926
  373DIO    C2620868   6.416   1.199   2.956
  373DIO     H120869   8.137   0.938   3.104
  373DIO     H220870   8.096   1.359   2.976
  373DIO     H320871   7.919   1.202   2.820
  373DIO     H420872   7.668   1.173   2.813
  373DIO     H520873   7.668   1.026   3.224
  373DIO     H620874   7.059   1.000   2.812
  373DIO     H720875   7.047   0.826   3.214
  373DIO     H820876   6.890   0.775   2.953
  373DIO     H920877   6.854   1.141   2.958
  373DIO    H1020878   6.714   1.126   2.854
  373DIO    H1120879   6.656   1.164   3.099
  373DIO    H1220880   6.698   0.968   3.253
  373DIO    H1320881   6.845   1.047   3.198
  373DIO    H1420882   6.565   0.888   3.000
  373DIO    H1520883   6.489   0.984   3.125
  373DIO    H1620884   6.502   1.050   2.827
  373DIO    H1720885   6.363   0.995   2.918
  373DIO    H1820886   6.373   1.207   3.056
  373DIO    H1920887   6.503   1.266   2.951
  373DIO    H2020888   6.343   1.234   2.884
  374DIO     F120889   6.427   4.811   2.136
  374DIO     C120890   6.350   4.905   2.194
  374DIO     C220891   6.205   4.897   2.179
  374DIO     C320892   6.117   4.999   2.239
  374DIO     C420893   6.182   5.106   2.317
  374DIO     C520894   6.326   5.112   2.331
  374DIO     F220895   6.382   5.209   2.406
  374DIO     C620896   6.410   5.011   2.270
  374DIO     F320897   6.544   5.018   2.282
  374DIO     C720898   5.970   4.993   2.224
  374DIO     C820899   5.893   5.111   2.180
  374DIO     C920900   5.748   5.106   2.165
  374DIO    C1020901   5.676   4.987   2.205
  374DIO    C1120902   5.748   4.866   2.242
  374DIO    C1220903   5.892   4.871   2.254
  374DIO     F420904   5.957   4.760   2.294
  374DIO     O120905   5.544   4.980   2.166
  374DIO    C1320906   5.449   4.917   2.246
  374DIO     O220907   5.448   4.884   2.368
  374DIO    C1420908   5.320   4.900   2.179
  374DIO    C1520909   5.254   5.012   2.108
  374DIO     F520910   5.316   5.131   2.096
  374DIO    C1620911   5.123   4.999   2.047
  374DIO    C1720912   5.047   4.875   2.058
  374DIO    C1820913   5.116   4.758   2.112
  374DIO    C1920914   5.248   4.771   2.172
  374DIO     F620915   5.310   4.656   2.207
  374DIO    C2020916   4.906   4.864   2.005
  374DIO     O320917   4.837   4.989   1.999
  374DIO    C2120918   4.793   5.033   2.127
  374DIO    C2220919   4.704   4.929   2.194
  374DIO    C2320920   4.785   4.799   2.199
  374DIO     O420921   4.829   4.762   2.069
  374DIO    C2420922   4.571   4.905   2.118
  374DIO    C2520923   4.481   5.028   2.103
  374DIO    C2620924   4.442   5.093   2.234
  374DIO     H120925   6.163   4.815   2.122
  374DIO     H220926   6.122   5.178   2.372
  374DIO     H320927   5.945   5.202   2.152
  374DIO     H420928   5.693   5.190   2.125
  374DIO     H520929   5.694   4.776   2.266
  374DIO     H620930   5.085   5.083   1.989
  374DIO     H720931   5.073   4.659   2.103
  374DIO     H820932   4.916   4.832   1.900
  374DIO     H920933   4.880   5.056   2.190
  374DIO    H1020934   4.740   5.128   2.113
  374DIO    H1120935   4.682   4.961   2.296
  374DIO    H1220936   4.724   4.717   2.238
  374DIO    H1320937   4.871   4.810   2.266
  374DIO    H1420938   4.591   4.865   2.018
  374DIO    H1520939   4.515   4.828   2.172
  374DIO    H1620940   4.528   5.102   2.037
  374DIO    H1720941   4.389   4.996   2.051
  374DIO    H1820942   4.398   5.021   2.303
  374DIO    H1920943   4.529   5.139   2.283
  374DIO    H2020944   4.369   5.172   2.217
  375DIO     F120945   4.883   4.643   3.904
  375DIO     C120946   4.806   4.727   3.833
  375DIO     C220947   4.661   4.710   3.836
  375DIO     C320948   4.573   4.799   3.758
  375DIO     C420949   4.638   4.906   3.679
  375DIO     C520950   4.782   4.921   3.678
  375DIO     F220951   4.838   5.022   3.609
  375DIO     C620952   4.866   4.832   3.755
  375DIO     F320953   5.000   4.846   3.752
  375DIO     C720954   4.426   4.783   3.759
  375DIO     C820955   4.349   4.777   3.632
  375DIO     C920956   4.204   4.761   3.633
  375DIO    C1020957   4.132   4.762   3.759
  375DIO    C1120958   4.204   4.761   3.884
  375DIO    C1220959   4.348   4.773   3.884
  375DIO     F420960   4.413   4.777   4.002
  375DIO     O120961   4.000   4.723   3.753
  375DIO    C1320962   3.905   4.780   3.838
  375DIO     O220963   3.904   4.885   3.907
  375DIO    C1420964   3.776   4.710   3.833
  375DIO    C1520965   3.710   4.678   3.705
  375DIO     F520966   3.772   4.703   3.588
  375DIO    C1620967   3.579   4.616   3.698
  375DIO    C1720968   3.503   4.589   3.820
  375DIO    C1820969   3.572   4.604   3.947
  375DIO    C1920970   3.704   4.665   3.954
  375DIO     F620971   3.766   4.663   4.074
  375DIO    C2020972   3.362   4.534   3.814
  375DIO     O320973   3.293   4.567   3.693
  375DIO    C2120974   3.249   4.702   3.690
  375DIO    C2220975   3.160   4.734   3.810
  375DIO    C2320976   3.241   4.699   3.935
  375DIO     O420977   3.285   4.564   3.931
  375DIO    C2420978   3.027   4.655   3.809
  375DIO    C2520979   2.937   4.678   3.688
  375DIO    C2620980   2.898   4.823   3.666
  375DIO     H120981   4.619   4.631   3.897
  375DIO     H220982   4.578   4.980   3.628
  375DIO     H320983   4.401   4.778   3.537
  375DIO     H420984   4.149   4.748   3.541
  375DIO     H520985   4.150   4.755   3.978
  375DIO     H620986   3.541   4.586   3.601
  375DIO     H720987   3.529   4.565   4.039
  375DIO     H820988   3.372   4.425   3.812
  375DIO     H920989   3.336   4.769   3.688
  375DIO    H1020990   3.196   4.719   3.596
  375DIO    H1120991   3.138   4.841   3.812
  375DIO    H1220992   3.180   4.711   4.025
  375DIO    H1320993   3.327   4.766   3.946
  375DIO    H1420994   3.047   4.547   3.817
  375DIO    H1520995   2.971   4.682   3.900
  375DIO    H1620996   2.984   4.638   3.597
  375DIO    H1720997   2.845   4.619   3.702
  375DIO    H1820998   2.854   4.866   3.757
  375DIO    H1920999   2.985   4.883   3.637
  375DIO    H2021000   2.825   4.831   3.586
  376DIO     F121001   7.840   0.149   2.533
  376DIO     C121002   7.762   0.231   2.606
  376DIO     C221003   7.618   0.226   2.590
  376DIO     C321004   7.529   0.316   2.667
  376DIO     C421005   7.595   0.409   2.762
  376DIO     C521006   7.739   0.413   2.776
  376DIO     F221007   7.795   0.496   2.866
  376DIO     C621008   7.823   0.324   2.699
  376DIO     F321009   7.957   0.328   2.712
  376DIO     C721010   7.383   0.313   2.651
  376DIO     C821011   7.306   0.437   2.627
  376DIO     C921012   7.161   0.435   2.612
  376DIO    C1021013   7.089   0.310   2.630
  376DIO    C1121014   7.161   0.186   2.647
  376DIO    C1221015   7.305   0.188   2.659
  376DIO     F421016   7.370   0.072   2.680
  376DIO     O121017   6.956   0.310   2.591
  376DIO    C1321018   6.862   0.234   2.660
  376DIO     O221019   6.861   0.181   2.774
  376DIO    C1421020   6.733   0.229   2.590
  376DIO    C1521021   6.666   0.351   2.540
  376DIO     F521022   6.729   0.471   2.548
  376DIO    C1621023   6.536   0.349   2.477
  376DIO    C1721024   6.460   0.225   2.467
  376DIO    C1821025   6.529   0.101   2.501
  376DIO    C1921026   6.660   0.103   2.562
  376DIO     F621027   6.723  -0.016   2.577
  376DIO    C2021028   6.319   0.223   2.413
  376DIO     O321029   6.249   0.347   2.428
  376DIO    C2121030   6.206   0.369   2.562
  376DIO    C2221031   6.117   0.255   2.610
  376DIO    C2321032   6.198   0.127   2.593
  376DIO     O421033   6.242   0.111   2.459
  376DIO    C2421034   5.984   0.245   2.532
  376DIO    C2521035   5.893   0.368   2.537
  376DIO    C2621036   5.855   0.410   2.677
  376DIO     H121037   7.576   0.155   2.520
  376DIO     H221038   7.534   0.471   2.827
  376DIO     H321039   7.357   0.532   2.615
  376DIO     H421040   7.106   0.524   2.586
  376DIO     H521041   7.107   0.092   2.655
  376DIO     H621042   6.498   0.441   2.434
  376DIO     H721043   6.486   0.005   2.476
  376DIO     H821044   6.329   0.209   2.304
  376DIO     H921045   6.292   0.381   2.627
  376DIO    H1021046   6.153   0.465   2.564
  376DIO    H1121047   6.094   0.269   2.716
  376DIO    H1221048   6.137   0.039   2.618
  376DIO    H1321049   6.284   0.125   2.661
  376DIO    H1421050   6.004   0.222   2.426
  376DIO    H1521051   5.928   0.159   2.571
  376DIO    H1621052   5.941   0.452   2.485
  376DIO    H1721053   5.802   0.345   2.481
  376DIO    H1821054   5.811   0.327   2.733
  376DIO    H1921055   5.942   0.448   2.733
  376DIO    H2021056   5.781   0.491   2.673
  377DIO     F121057   2.181   6.115   8.250
  377DIO     C121058   2.104   6.221   8.280
  377DIO     C221059   1.960   6.209   8.268
  377DIO     C321060   1.871   6.324   8.297
  377DIO     C421061   1.936   6.449   8.342
  377DIO     C521062   2.081   6.458   8.353
  377DIO     F221063   2.136   6.572   8.398
  377DIO     C621064   2.164   6.344   8.323
  377DIO     F321065   2.298   6.355   8.333
  377DIO     C721066   1.725   6.314   8.284
  377DIO     C821067   1.647   6.415   8.208
  377DIO     C921068   1.503   6.406   8.196
  377DIO    C1021069   1.430   6.302   8.267
  377DIO    C1121070   1.503   6.197   8.337
  377DIO    C1221071   1.647   6.205   8.347
  377DIO     F421072   1.712   6.109   8.416
  377DIO     O121073   1.298   6.285   8.232
  377DIO    C1321074   1.203   6.247   8.327
  377DIO     O221075   1.203   6.249   8.453
  377DIO    C1421076   1.074   6.212   8.267
  377DIO    C1521077   1.008   6.300   8.168
  377DIO     F521078   1.071   6.410   8.123
  377DIO    C1621079   0.877   6.270   8.112
  377DIO    C1721080   0.801   6.154   8.158
  377DIO    C1821081   0.870   6.057   8.242
  377DIO    C1921082   1.002   6.086   8.297
  377DIO     F621083   1.064   5.986   8.362
  377DIO    C2021084   0.661   6.129   8.110
  377DIO     O321085   0.591   6.247   8.069
  377DIO    C2121086   0.547   6.325   8.179
  377DIO    C2221087   0.458   6.244   8.273
  377DIO    C2321088   0.539   6.121   8.314
  377DIO     O421089   0.583   6.048   8.200
  377DIO    C2421090   0.326   6.200   8.207
  377DIO    C2521091   0.235   6.313   8.158
  377DIO    C2621092   0.197   6.413   8.266
  377DIO     H121093   1.917   6.114   8.236
  377DIO     H221094   1.876   6.533   8.374
  377DIO     H321095   1.699   6.494   8.156
  377DIO     H421096   1.448   6.475   8.134
  377DIO     H521097   1.448   6.117   8.385
  377DIO     H621098   0.839   6.334   8.033
  377DIO     H721099   0.827   5.960   8.262
  377DIO     H821100   0.670   6.068   8.018
  377DIO     H921101   0.634   6.365   8.234
  377DIO    H1021102   0.495   6.413   8.140
  377DIO    H1121103   0.436   6.303   8.362
  377DIO    H1221104   0.478   6.053   8.375
  377DIO    H1321105   0.625   6.150   8.376
  377DIO    H1421106   0.346   6.133   8.122
  377DIO    H1521107   0.269   6.140   8.280
  377DIO    H1621108   0.282   6.366   8.074
  377DIO    H1721109   0.143   6.269   8.117
  377DIO    H1821110   0.153   6.363   8.352
  377DIO    H1921111   0.283   6.471   8.300
  377DIO    H2021112   0.123   6.484   8.227
  378DIO     F121113   9.197   9.587   7.321
  378DIO     C121114   9.120   9.478   7.310
  378DIO     C221115   8.976   9.491   7.320
  378DIO     C321116   8.887   9.373   7.310
  378DIO     C421117   8.952   9.242   7.288
  378DIO     C521118   9.097   9.231   7.278
  378DIO     F221119   9.152   9.111   7.254
  378DIO     C621120   9.180   9.348   7.289
  378DIO     F321121   9.314   9.337   7.280
  378DIO     C721122   8.740   9.385   7.321
  378DIO     C821123   8.663   9.298   7.414
  378DIO     C921124   8.519   9.309   7.424
  378DIO    C1021125   8.446   9.399   7.336
  378DIO    C1121126   8.518   9.491   7.250
  378DIO    C1221127   8.663   9.482   7.241
  378DIO     F421128   8.727   9.564   7.157
  378DIO     O121129   8.314   9.422   7.368
  378DIO    C1321130   8.219   9.444   7.268
  378DIO     O221131   8.218   9.420   7.145
  378DIO    C1421132   8.090   9.489   7.322
  378DIO    C1521133   8.024   9.419   7.434
  378DIO     F521134   8.086   9.318   7.497
  378DIO    C1621135   7.893   9.458   7.484
  378DIO    C1721136   7.817   9.564   7.419
  378DIO    C1821137   7.886   9.645   7.319
  378DIO    C1921138   8.018   9.607   7.270
  378DIO     F621139   8.080   9.695   7.189
  378DIO    C2021140   7.677   9.598   7.462
  378DIO     O321141   7.607   9.488   7.522
  378DIO    C2121142   7.563   9.392   7.427
  378DIO    C2221143   7.474   9.456   7.321
  378DIO    C2321144   7.555   9.570   7.259
  378DIO     O421145   7.599   9.661   7.359
  378DIO    C2421146   7.341   9.510   7.378
  378DIO    C2521147   7.251   9.407   7.446
  378DIO    C2621148   7.212   9.291   7.357
  378DIO     H121149   8.933   9.590   7.335
  378DIO     H221150   8.892   9.154   7.270
  378DIO     H321151   8.715   9.229   7.479
  378DIO     H421152   8.463   9.252   7.498
  378DIO     H521153   8.464   9.561   7.189
  378DIO     H621154   7.855   9.408   7.572
  378DIO     H721155   7.843   9.738   7.283
  378DIO     H821156   7.686   9.673   7.541
  378DIO     H921157   7.650   9.344   7.380
  378DIO    H1021158   7.510   9.313   7.481
  378DIO    H1121159   7.452   9.383   7.243
  378DIO    H1221160   7.494   9.626   7.188
  378DIO    H1321161   7.641   9.531   7.203
  378DIO    H1421162   7.361   9.591   7.450
  378DIO    H1521163   7.285   9.557   7.296
  378DIO    H1621164   7.298   9.370   7.537
  378DIO    H1721165   7.159   9.458   7.478
  378DIO    H1821166   7.168   9.325   7.263
  378DIO    H1921167   7.299   9.228   7.333
  378DIO    H2021168   7.139   9.227   7.407
  379DIO     F121169   5.580   3.533   3.200
  379DIO     C121170   5.502   3.634   3.155
  379DIO     C221171   5.358   3.617   3.153
  379DIO     C321172   5.269   3.724   3.102
  379DIO     C421173   5.335   3.849   3.056
  379DIO     C521174   5.479   3.863   3.059
  379DIO     F221175   5.535   3.979   3.020
  379DIO     C621176   5.563   3.756   3.108
  379DIO     F321177   5.697   3.770   3.110
  379DIO     C721178   5.123   3.708   3.098
  379DIO     C821179   5.046   3.737   2.975
  379DIO     C921180   4.901   3.722   2.972
  379DIO    C1021181   4.829   3.688   3.093
  379DIO    C1121182   4.901   3.652   3.213
  379DIO    C1221183   5.045   3.664   3.216
  379DIO     F421184   5.110   3.635   3.330
  379DIO     O121185   4.696   3.653   3.076
  379DIO    C1321186   4.602   3.684   3.174
  379DIO     O221187   4.601   3.766   3.269
  379DIO    C1421188   4.473   3.618   3.150
  379DIO    C1521189   4.406   3.622   3.018
  379DIO     F521190   4.469   3.679   2.913
  379DIO    C1621191   4.276   3.564   2.994
  379DIO    C1721192   4.200   3.505   3.103
  379DIO    C1821193   4.269   3.484   3.230
  379DIO    C1921194   4.400   3.541   3.254
  379DIO     F621195   4.463   3.506   3.368
  379DIO    C2021196   4.059   3.454   3.083
  379DIO     O321197   3.989   3.519   2.976
  379DIO    C2121198   3.946   3.650   3.010
  379DIO    C2221199   3.857   3.647   3.134
  379DIO    C2321200   3.938   3.579   3.245
  379DIO     O421201   3.982   3.450   3.203
  379DIO    C2421202   3.724   3.571   3.112
  379DIO    C2521203   3.633   3.626   3.001
  379DIO    C2621204   3.595   3.772   3.021
  379DIO     H121205   5.316   3.524   3.189
  379DIO     H221206   5.274   3.934   3.027
  379DIO     H321207   5.097   3.765   2.884
  379DIO     H421208   4.846   3.735   2.879
  379DIO     H521209   4.847   3.622   3.301
  379DIO     H621210   4.238   3.563   2.893
  379DIO     H721211   4.226   3.421   3.308
  379DIO     H821212   4.069   3.349   3.051
  379DIO     H921213   4.032   3.715   3.027
  379DIO    H1021214   3.893   3.691   2.924
  379DIO    H1121215   3.834   3.749   3.165
  379DIO    H1221216   3.877   3.566   3.335
  379DIO    H1321217   4.024   3.640   3.274
  379DIO    H1421218   3.744   3.466   3.089
  379DIO    H1521219   3.668   3.572   3.206
  379DIO    H1621220   3.681   3.614   2.903
  379DIO    H1721221   3.542   3.566   2.999
  379DIO    H1821222   3.551   3.789   3.119
  379DIO    H1921223   3.682   3.838   3.009
  379DIO    H2021224   3.521   3.802   2.945
  380DIO     F121225   3.814   4.649   3.009
  380DIO     C121226   3.737   4.601   3.108
  380DIO     C221227   3.593   4.615   3.099
  380DIO     C321228   3.504   4.566   3.207
  380DIO     C421229   3.569   4.501   3.322
  380DIO     C521230   3.714   4.488   3.329
  380DIO     F221231   3.769   4.424   3.434
  380DIO     C621232   3.797   4.537   3.223
  380DIO     F321233   3.931   4.526   3.231
  380DIO     C721234   3.357   4.581   3.200
  380DIO     C821235   3.280   4.638   3.312
  380DIO     C921236   3.136   4.652   3.305
  380DIO    C1021237   3.063   4.600   3.191
  380DIO    C1121238   3.136   4.549   3.076
  380DIO    C1221239   3.280   4.538   3.081
  380DIO     F421240   3.345   4.486   2.975
  380DIO     O121241   2.931   4.637   3.180
  380DIO    C1321242   2.836   4.551   3.126
  380DIO     O221243   2.835   4.426   3.106
  380DIO    C1421244   2.707   4.616   3.102
  380DIO    C1521245   2.641   4.698   3.205
  380DIO     F521246   2.704   4.723   3.322
  380DIO    C1621247   2.510   4.758   3.186
  380DIO    C1721248   2.434   4.733   3.064
  380DIO    C1821249   2.503   4.666   2.954
  380DIO    C1921250   2.635   4.608   2.973
  380DIO     F621251   2.697   4.561   2.863
  380DIO    C2021252   2.294   4.785   3.047
  380DIO     O321253   2.224   4.804   3.170
  380DIO    C2121254   2.180   4.682   3.229
  380DIO    C2221255   2.091   4.604   3.132
  380DIO    C2321256   2.172   4.585   3.004
  380DIO     O421257   2.216   4.710   2.952
  380DIO    C2421258   1.959   4.677   3.101
  380DIO    C2521259   1.868   4.706   3.221
  380DIO    C2621260   1.829   4.582   3.300
  380DIO     H121261   3.550   4.663   3.011
  380DIO     H221262   3.509   4.455   3.400
  380DIO     H321263   3.332   4.676   3.399
  380DIO     H421264   3.081   4.702   3.384
  380DIO     H521265   3.081   4.516   2.988
  380DIO     H621266   2.472   4.825   3.262
  380DIO     H721267   2.460   4.664   2.854
  380DIO     H821268   2.303   4.885   3.003
  380DIO     H921269   2.267   4.622   3.258
  380DIO    H1021270   2.127   4.706   3.321
  380DIO    H1121271   2.069   4.506   3.175
  380DIO    H1221272   2.111   4.537   2.927
  380DIO    H1321273   2.258   4.519   3.022
  380DIO    H1421274   1.978   4.772   3.049
  380DIO    H1521275   1.902   4.615   3.029
  380DIO    H1621276   1.915   4.779   3.287
  380DIO    H1721277   1.776   4.753   3.183
  380DIO    H1821278   1.786   4.505   3.236
  380DIO    H1921279   1.916   4.539   3.351
  380DIO    H2021280   1.756   4.608   3.377
  381DIO     F121281   9.066   2.716   2.898
  381DIO     C121282   8.988   2.728   2.788
  381DIO     C221283   8.844   2.718   2.802
  381DIO     C321284   8.755   2.728   2.684
  381DIO     C421285   8.821   2.752   2.553
  381DIO     C521286   8.965   2.761   2.542
  381DIO     F221287   9.020   2.787   2.422
  381DIO     C621288   9.049   2.750   2.659
  381DIO     F321289   9.182   2.758   2.648
  381DIO     C721290   8.609   2.717   2.695
  381DIO     C821291   8.532   2.625   2.608
  381DIO     C921292   8.387   2.615   2.619
  381DIO    C1021293   8.314   2.702   2.710
  381DIO    C1121294   8.387   2.788   2.802
  381DIO    C1221295   8.531   2.796   2.793
  381DIO     F421296   8.596   2.880   2.876
  381DIO     O121297   8.182   2.670   2.732
  381DIO    C1321298   8.088   2.770   2.755
  381DIO     O221299   8.087   2.894   2.732
  381DIO    C1421300   7.959   2.716   2.799
  381DIO    C1521301   7.892   2.604   2.729
  381DIO     F521302   7.955   2.542   2.627
  381DIO    C1621303   7.761   2.554   2.767
  381DIO    C1721304   7.686   2.618   2.874
  381DIO    C1821305   7.754   2.717   2.956
  381DIO    C1921306   7.886   2.766   2.918
  381DIO     F621307   7.949   2.847   3.007
  381DIO    C2021308   7.545   2.575   2.907
  381DIO     O321309   7.475   2.516   2.797
  381DIO    C2121310   7.432   2.612   2.701
  381DIO    C2221311   7.343   2.717   2.767
  381DIO    C2321312   7.423   2.778   2.881
  381DIO     O421313   7.468   2.677   2.971
  381DIO    C2421314   7.210   2.659   2.821
  381DIO    C2521315   7.119   2.592   2.717
  381DIO    C2621316   7.081   2.682   2.601
  381DIO     H121317   8.801   2.702   2.900
  381DIO     H221318   8.760   2.770   2.465
  381DIO     H321319   8.583   2.561   2.538
  381DIO     H421320   8.332   2.542   2.561
  381DIO     H521321   8.332   2.848   2.873
  381DIO     H621322   7.723   2.466   2.717
  381DIO     H721323   7.712   2.752   3.049
  381DIO     H821324   7.555   2.495   2.981
  381DIO     H921325   7.518   2.659   2.654
  381DIO    H1021326   7.379   2.558   2.622
  381DIO    H1121327   7.320   2.796   2.694
  381DIO    H1221328   7.362   2.849   2.938
  381DIO    H1321329   7.510   2.834   2.843
  381DIO    H1421330   7.230   2.587   2.900
  381DIO    H1521331   7.153   2.741   2.867
  381DIO    H1621332   7.167   2.501   2.678
  381DIO    H1721333   7.027   2.560   2.768
  381DIO    H1821334   7.037   2.776   2.637
  381DIO    H1921335   7.167   2.706   2.538
  381DIO    H2021336   7.007   2.632   2.537
  382DIO     F121337   2.421   5.424   7.453
  382DIO     C121338   2.343   5.316   7.472
  382DIO     C221339   2.199   5.332   7.478
  382DIO     C321340   2.110   5.216   7.501
  382DIO     C421341   2.176   5.083   7.515
  382DIO     C521342   2.320   5.070   7.509
  382DIO     F221343   2.375   4.948   7.518
  382DIO     C621344   2.404   5.186   7.487
  382DIO     F321345   2.538   5.172   7.482
  382DIO     C721346   1.964   5.230   7.509
  382DIO     C821347   1.887   5.172   7.621
  382DIO     C921348   1.742   5.185   7.628
  382DIO    C1021349   1.669   5.248   7.519
  382DIO    C1121350   1.742   5.312   7.411
  382DIO    C1221351   1.886   5.301   7.405
  382DIO     F421352   1.951   5.357   7.301
  382DIO     O121353   1.537   5.278   7.543
  382DIO    C1321354   1.443   5.272   7.441
  382DIO     O221355   1.442   5.215   7.329
  382DIO    C1421356   1.314   5.330   7.480
  382DIO    C1521357   1.247   5.294   7.608
  382DIO     F521358   1.310   5.213   7.696
  382DIO    C1621359   1.117   5.344   7.645
  382DIO    C1721360   1.041   5.429   7.553
  382DIO    C1821361   1.110   5.479   7.435
  382DIO    C1921362   1.241   5.430   7.399
  382DIO     F621363   1.304   5.492   7.296
  382DIO    C2021364   0.900   5.473   7.586
  382DIO     O321365   0.830   5.384   7.674
  382DIO    C2121366   0.787   5.265   7.608
  382DIO    C2221367   0.698   5.298   7.489
  382DIO    C2321368   0.779   5.391   7.398
  382DIO     O421369   0.823   5.506   7.470
  382DIO    C2421370   0.565   5.366   7.529
  382DIO    C2521371   0.474   5.285   7.622
  382DIO    C2621372   0.436   5.149   7.568
  382DIO     H121373   2.156   5.431   7.465
  382DIO     H221374   2.115   4.994   7.522
  382DIO     H321375   1.938   5.123   7.702
  382DIO     H421376   1.687   5.150   7.714
  382DIO     H521377   1.688   5.363   7.333
  382DIO     H621378   1.078   5.321   7.744
  382DIO     H721379   1.067   5.559   7.376
  382DIO     H821380   0.910   5.567   7.642
  382DIO     H921381   0.873   5.206   7.576
  382DIO    H1021382   0.734   5.204   7.682
  382DIO    H1121383   0.675   5.206   7.434
  382DIO    H1221384   0.717   5.426   7.314
  382DIO    H1321385   0.865   5.338   7.355
  382DIO    H1421386   0.585   5.463   7.576
  382DIO    H1521387   0.509   5.388   7.437
  382DIO    H1621388   0.522   5.274   7.721
  382DIO    H1721389   0.383   5.343   7.640
  382DIO    H1821390   0.392   5.157   7.468
  382DIO    H1921391   0.522   5.082   7.563
  382DIO    H2021392   0.362   5.102   7.634
  383DIO     F121393   7.277   0.282   4.513
  383DIO     C121394   7.200   0.251   4.408
  383DIO     C221395   7.056   0.247   4.424
  383DIO     C321396   6.967   0.211   4.311
  383DIO     C421397   7.032   0.182   4.182
  383DIO     C521398   7.177   0.187   4.168
  383DIO     F221399   7.232   0.164   4.047
  383DIO     C621400   7.260   0.222   4.280
  383DIO     F321401   7.394   0.225   4.266
  383DIO     C721402   6.820   0.205   4.326
  383DIO     C821403   6.743   0.087   4.282
  383DIO     C921404   6.599   0.081   4.296
  383DIO    C1021405   6.526   0.197   4.345
  383DIO    C1121406   6.598   0.311   4.397
  383DIO    C1221407   6.743   0.316   4.386
  383DIO     F421408   6.807   0.426   4.430
  383DIO     O121409   6.394   0.176   4.379
  383DIO    C1321410   6.299   0.277   4.361
  383DIO     O221411   6.298   0.382   4.292
  383DIO    C1421412   6.170   0.244   4.423
  383DIO    C1521413   6.104   0.114   4.401
  383DIO     F521414   6.166   0.017   4.331
  383DIO    C1621415   5.973   0.083   4.455
  383DIO    C1721416   5.897   0.183   4.529
  383DIO    C1821417   5.966   0.306   4.566
  383DIO    C1921418   6.098   0.337   4.513
  383DIO     F621419   6.160   0.445   4.563
  383DIO    C2021420   5.757   0.156   4.577
  383DIO     O321421   5.687   0.059   4.498
  383DIO    C2121422   5.643   0.110   4.373
  383DIO    C2221423   5.554   0.233   4.392
  383DIO    C2321424   5.635   0.333   4.474
  383DIO     O421425   5.679   0.275   4.596
  383DIO    C2421426   5.421   0.200   4.464
  383DIO    C2521427   5.331   0.098   4.395
  383DIO    C2621428   5.292   0.137   4.253
  383DIO     H121429   7.013   0.271   4.521
  383DIO     H221430   6.972   0.165   4.093
  383DIO     H321431   6.795   0.001   4.242
  383DIO     H421432   6.543  -0.008   4.271
  383DIO     H521433   6.544   0.395   4.439
  383DIO     H621434   5.935  -0.018   4.443
  383DIO     H721435   5.923   0.374   4.639
  383DIO     H821436   5.766   0.111   4.676
  383DIO     H921437   5.730   0.135   4.311
  383DIO    H1021438   5.590   0.030   4.320
  383DIO    H1121439   5.532   0.277   4.295
  383DIO    H1221440   5.574   0.420   4.499
  383DIO    H1321441   5.721   0.370   4.417
  383DIO    H1421442   5.441   0.164   4.566
  383DIO    H1521443   5.365   0.294   4.476
  383DIO    H1621444   5.378  -0.001   4.394
  383DIO    H1721445   5.239   0.088   4.454
  383DIO    H1821446   5.248   0.237   4.249
  383DIO    H1921447   5.379   0.135   4.186
  383DIO    H2021448   5.219   0.066   4.213
  384DIO     F121449   7.713   4.464   2.030
  384DIO     C121450   7.635   4.354   2.039
  384DIO     C221451   7.491   4.370   2.046
  384DIO     C321452   7.402   4.252   2.058
  384DIO     C421453   7.468   4.119   2.060
  384DIO     C521454   7.612   4.106   2.052
  384DIO     F221455   7.668   3.983   2.050
  384DIO     C621456   7.696   4.223   2.041
  384DIO     F321457   7.830   4.210   2.035
  384DIO     C721458   7.256   4.265   2.067
  384DIO     C821459   7.179   4.197   2.173
  384DIO     C921460   7.034   4.209   2.182
  384DIO    C1021461   6.962   4.282   2.079
  384DIO    C1121462   7.034   4.357   1.978
  384DIO    C1221463   7.178   4.346   1.971
  384DIO     F421464   7.243   4.412   1.873
  384DIO     O121465   6.829   4.310   2.106
  384DIO    C1321466   6.735   4.314   2.004
  384DIO     O221467   6.734   4.268   1.887
  384DIO    C1421468   6.606   4.367   2.049
  384DIO    C1521469   6.540   4.319   2.172
  384DIO     F521470   6.602   4.230   2.252
  384DIO    C1621471   6.409   4.366   2.214
  384DIO    C1721472   6.333   4.459   2.131
  384DIO    C1821473   6.402   4.521   2.018
  384DIO    C1921474   6.533   4.475   1.977
  384DIO     F621475   6.596   4.546   1.881
  384DIO    C2021476   6.192   4.500   2.167
  384DIO     O321477   6.123   4.403   2.246
  384DIO    C2121478   6.079   4.291   2.170
  384DIO    C2221479   5.990   4.335   2.054
  384DIO    C2321480   6.071   4.436   1.972
  384DIO     O421481   6.115   4.544   2.055
  384DIO    C2421482   5.857   4.399   2.100
  384DIO    C2521483   5.767   4.310   2.186
  384DIO    C2621484   5.728   4.179   2.119
  384DIO     H121485   7.449   4.469   2.043
  384DIO     H221486   7.407   4.029   2.058
  384DIO     H321487   7.230   4.140   2.250
  384DIO     H421488   6.979   4.166   2.264
  384DIO     H521489   6.980   4.415   1.905
  384DIO     H621490   6.371   4.333   2.310
  384DIO     H721491   6.359   4.606   1.966
  384DIO     H821492   6.202   4.588   2.232
  384DIO     H921493   6.166   4.235   2.132
  384DIO    H1021494   6.026   4.223   2.237
  384DIO    H1121495   5.967   4.249   1.990
  384DIO    H1221496   6.010   4.479   1.892
  384DIO    H1321497   6.157   4.388   1.925
  384DIO    H1421498   5.877   4.491   2.157
  384DIO    H1521499   5.801   4.430   2.011
  384DIO    H1621500   5.814   4.289   2.282
  384DIO    H1721501   5.675   4.366   2.208
  384DIO    H1821502   5.684   4.196   2.020
  384DIO    H1921503   5.815   4.113   2.107
  384DIO    H2021504   5.654   4.126   2.180
  385DIO     F121505   2.651   8.403   3.554
  385DIO     C121506   2.573   8.365   3.451
  385DIO     C221507   2.429   8.362   3.468
  385DIO     C321508   2.340   8.319   3.358
  385DIO     C421509   2.406   8.281   3.230
  385DIO     C521510   2.550   8.285   3.216
  385DIO     F221511   2.605   8.254   3.097
  385DIO     C621512   2.634   8.327   3.326
  385DIO     F321513   2.767   8.329   3.312
  385DIO     C721514   2.194   8.314   3.373
  385DIO     C821515   2.117   8.193   3.336
  385DIO     C921516   1.972   8.188   3.351
  385DIO    C1021517   1.899   8.307   3.393
  385DIO    C1121518   1.972   8.425   3.437
  385DIO    C1221519   2.116   8.428   3.425
  385DIO     F421520   2.181   8.541   3.461
  385DIO     O121521   1.767   8.288   3.427
  385DIO    C1321522   1.673   8.388   3.403
  385DIO     O221523   1.672   8.488   3.327
  385DIO    C1421524   1.544   8.359   3.466
  385DIO    C1521525   1.477   8.228   3.453
  385DIO     F521526   1.540   8.127   3.390
  385DIO    C1621527   1.346   8.200   3.510
  385DIO    C1721528   1.271   8.305   3.577
  385DIO    C1821529   1.339   8.431   3.605
  385DIO    C1921530   1.471   8.458   3.550
  385DIO     F621531   1.534   8.569   3.593
  385DIO    C2021532   1.130   8.281   3.626
  385DIO     O321533   1.060   8.179   3.554
  385DIO    C2121534   1.017   8.222   3.426
  385DIO    C2221535   0.928   8.346   3.437
  385DIO    C2321536   1.008   8.451   3.512
  385DIO     O421537   1.053   8.401   3.638
  385DIO    C2421538   0.795   8.318   3.511
  385DIO    C2521539   0.704   8.212   3.448
  385DIO    C2621540   0.666   8.241   3.304
  385DIO     H121541   2.386   8.392   3.563
  385DIO     H221542   2.345   8.258   3.143
  385DIO     H321543   2.168   8.104   3.302
  385DIO     H421544   1.917   8.097   3.332
  385DIO     H521545   1.917   8.511   3.473
  385DIO     H621546   1.308   8.099   3.504
  385DIO     H721547   1.297   8.504   3.673
  385DIO     H821548   1.140   8.243   3.728
  385DIO     H921549   1.103   8.243   3.362
  385DIO    H1021550   0.964   8.139   3.378
  385DIO    H1121551   0.905   8.383   3.336
  385DIO    H1221552   0.947   8.540   3.531
  385DIO    H1321553   1.095   8.484   3.452
  385DIO    H1421554   0.815   8.289   3.615
  385DIO    H1521555   0.738   8.412   3.516
  385DIO    H1621556   0.752   8.113   3.455
  385DIO    H1721557   0.612   8.205   3.508
  385DIO    H1821558   0.622   8.340   3.294
  385DIO    H1921559   0.752   8.234   3.237
  385DIO    H2021560   0.592   8.167   3.270
  386DIO     F121561   4.571   0.470   6.179
  386DIO     C121562   4.493   0.580   6.180
  386DIO     C221563   4.349   0.566   6.171
  386DIO     C321564   4.260   0.684   6.170
  386DIO     C421565   4.326   0.816   6.180
  386DIO     C521566   4.470   0.828   6.188
  386DIO     F221567   4.526   0.950   6.202
  386DIO     C621568   4.554   0.711   6.189
  386DIO     F321569   4.688   0.723   6.196
  386DIO     C721570   4.114   0.671   6.160
  386DIO     C821571   4.037   0.749   6.060
  386DIO     C921572   3.892   0.737   6.050
  386DIO    C1021573   3.820   0.656   6.146
  386DIO    C1121574   3.892   0.572   6.241
  386DIO    C1221575   4.036   0.582   6.248
  386DIO     F421576   4.101   0.508   6.340
  386DIO     O121577   3.687   0.630   6.117
  386DIO    C1321578   3.593   0.617   6.218
  386DIO     O221579   3.592   0.653   6.339
  386DIO    C1421580   3.464   0.568   6.169
  386DIO    C1521581   3.398   0.627   6.051
  386DIO     F521582   3.460   0.722   5.979
  386DIO    C1621583   3.267   0.584   6.005
  386DIO    C1721584   3.191   0.484   6.080
  386DIO    C1821585   3.260   0.412   6.187
  386DIO    C1921586   3.391   0.455   6.231
  386DIO     F621587   3.454   0.375   6.321
  386DIO    C2021588   3.050   0.446   6.040
  386DIO     O321589   2.981   0.550   5.970
  386DIO    C2121590   2.937   0.655   6.055
  386DIO    C2221591   2.848   0.600   6.167
  386DIO    C2321592   2.929   0.493   6.239
  386DIO     O421593   2.973   0.393   6.148
  386DIO    C2421594   2.715   0.541   6.115
  386DIO    C2521595   2.625   0.637   6.038
  386DIO    C2621596   2.586   0.762   6.116
  386DIO     H121597   4.307   0.466   6.166
  386DIO     H221598   4.265   0.906   6.189
  386DIO     H321599   4.088   0.812   5.989
  386DIO     H421600   3.837   0.787   5.972
  386DIO     H521601   3.838   0.508   6.308
  386DIO     H621602   3.229   0.625   5.912
  386DIO     H721603   3.217   0.323   6.231
  386DIO     H821604   3.060   0.364   5.968
  386DIO     H921605   3.024   0.707   6.097
  386DIO    H1021606   2.884   0.728   5.994
  386DIO    H1121607   2.825   0.681   6.238
  386DIO    H1221608   2.868   0.443   6.315
  386DIO    H1321609   3.015   0.537   6.291
  386DIO    H1421610   2.735   0.454   6.051
  386DIO    H1521611   2.659   0.503   6.201
  386DIO    H1621612   2.672   0.666   5.943
  386DIO    H1721613   2.533   0.583   6.010
  386DIO    H1821614   2.542   0.736   6.213
  386DIO    H1921615   2.673   0.827   6.133
  386DIO    H2021616   2.512   0.820   6.060
  387DIO     F121617   3.340   2.104   1.510
  387DIO     C121618   3.262   1.997   1.484
  387DIO     C221619   3.118   2.009   1.496
  387DIO     C321620   3.029   1.893   1.470
  387DIO     C421621   3.095   1.767   1.430
  387DIO     C521622   3.239   1.757   1.419
  387DIO     F221623   3.295   1.641   1.379
  387DIO     C621624   3.323   1.872   1.445
  387DIO     F321625   3.457   1.861   1.436
  387DIO     C721626   2.883   1.903   1.483
  387DIO     C821627   2.806   1.805   1.563
  387DIO     C921628   2.661   1.815   1.575
  387DIO    C1021629   2.589   1.916   1.500
  387DIO    C1121630   2.661   2.018   1.427
  387DIO    C1221631   2.805   2.010   1.417
  387DIO     F421632   2.870   2.103   1.344
  387DIO     O121633   2.456   1.934   1.534
  387DIO    C1321634   2.362   1.969   1.438
  387DIO     O221635   2.361   1.962   1.313
  387DIO    C1421636   2.233   2.006   1.497
  387DIO    C1521637   2.167   1.922   1.599
  387DIO     F521638   2.229   1.813   1.648
  387DIO    C1621639   2.036   1.953   1.654
  387DIO    C1721640   1.960   2.067   1.604
  387DIO    C1821641   2.029   2.161   1.516
  387DIO    C1921642   2.160   2.131   1.463
  387DIO     F621643   2.223   2.229   1.394
  387DIO    C2021644   1.819   2.095   1.651
  387DIO     O321645   1.750   1.978   1.696
  387DIO    C2121646   1.706   1.896   1.588
  387DIO    C2221647   1.617   1.974   1.492
  387DIO    C2321648   1.698   2.095   1.446
  387DIO     O421649   1.742   2.172   1.558
  387DIO    C2421650   1.484   2.020   1.556
  387DIO    C2521651   1.394   1.909   1.610
  387DIO    C2621652   1.355   1.805   1.505
  387DIO     H121653   3.076   2.105   1.524
  387DIO     H221654   3.034   1.681   1.401
  387DIO     H321655   2.857   1.728   1.618
  387DIO     H421656   2.606   1.748   1.639
  387DIO     H521657   2.607   2.096   1.376
  387DIO     H621658   1.998   1.892   1.735
  387DIO     H721659   1.986   2.258   1.493
  387DIO     H821660   1.829   2.158   1.740
  387DIO     H921661   1.793   1.855   1.536
  387DIO    H1021662   1.653   1.810   1.631
  387DIO    H1121663   1.594   1.912   1.405
  387DIO    H1221664   1.637   2.161   1.383
  387DIO    H1321665   1.784   2.064   1.386
  387DIO    H1421666   1.504   2.090   1.639
  387DIO    H1521667   1.428   2.077   1.481
  387DIO    H1621668   1.441   1.859   1.695
  387DIO    H1721669   1.302   1.955   1.648
  387DIO    H1821670   1.311   1.853   1.417
  387DIO    H1921671   1.442   1.746   1.473
  387DIO    H2021672   1.281   1.736   1.547
  388DIO     F121673   6.320   9.761   5.492
  388DIO     C121674   6.242   9.807   5.392
  388DIO     C221675   6.098   9.793   5.402
  388DIO     C321676   6.009   9.840   5.293
  388DIO     C421677   6.075   9.904   5.177
  388DIO     C521678   6.219   9.917   5.169
  388DIO     F221679   6.275   9.979   5.064
  388DIO     C621680   6.303   9.869   5.277
  388DIO     F321681   6.437   9.880   5.268
  388DIO     C721682   5.863   9.826   5.301
  388DIO     C821683   5.786   9.767   5.189
  388DIO     C921684   5.641   9.753   5.196
  388DIO    C1021685   5.569   9.807   5.310
  388DIO    C1121686   5.641   9.859   5.424
  388DIO    C1221687   5.785   9.870   5.418
  388DIO     F421688   5.850   9.924   5.523
  388DIO     O121689   5.436   9.770   5.321
  388DIO    C1321690   5.342   9.857   5.374
  388DIO     O221691   5.341   9.982   5.391
  388DIO    C1421692   5.213   9.792   5.399
  388DIO    C1521693   5.146   9.708   5.297
  388DIO     F521694   5.209   9.682   5.180
  388DIO    C1621695   5.016   9.649   5.317
  388DIO    C1721696   4.940   9.676   5.439
  388DIO    C1821697   5.009   9.744   5.548
  388DIO    C1921698   5.140   9.802   5.528
  388DIO     F621699   5.203   9.851   5.637
  388DIO    C2021700   4.799   9.624   5.457
  388DIO     O321701   4.729   9.603   5.333
  388DIO    C2121702   4.686   9.724   5.273
  388DIO    C2221703   4.597   9.803   5.368
  388DIO    C2321704   4.678   9.825   5.496
  388DIO     O421705   4.722   9.701   5.550
  388DIO    C2421706   4.464   9.732   5.401
  388DIO    C2521707   4.373   9.701   5.282
  388DIO    C2621708   4.335   9.823   5.200
  388DIO     H121709   6.056   9.747   5.490
  388DIO     H221710   6.014   9.949   5.099
  388DIO     H321711   5.837   9.728   5.102
  388DIO     H421712   5.586   9.702   5.118
  388DIO     H521713   5.587   9.894   5.511
  388DIO     H621714   4.978   9.581   5.242
  388DIO     H721715   4.966   9.748   5.647
  388DIO     H821716   4.809   9.525   5.502
  388DIO     H921717   4.772   9.784   5.243
  388DIO    H1021718   4.633   9.699   5.181
  388DIO    H1121719   4.574   9.901   5.324
  388DIO    H1221720   4.617   9.874   5.573
  388DIO    H1321721   4.764   9.890   5.478
  388DIO    H1421722   4.484   9.637   5.454
  388DIO    H1521723   4.408   9.794   5.472
  388DIO    H1621724   4.421   9.627   5.216
  388DIO    H1721725   4.282   9.654   5.319
  388DIO    H1821726   4.291   9.901   5.264
  388DIO    H1921727   4.422   9.865   5.148
  388DIO    H2021728   4.261   9.796   5.124
  389DIO     F121729   3.218   6.883   2.089
  389DIO     C121730   3.141   6.914   2.195
  389DIO     C221731   2.997   6.918   2.179
  389DIO     C321732   2.908   6.953   2.292
  389DIO     C421733   2.973   6.981   2.422
  389DIO     C521734   3.118   6.976   2.435
  389DIO     F221735   3.173   6.997   2.556
  389DIO     C621736   3.201   6.942   2.323
  389DIO     F321737   3.335   6.939   2.337
  389DIO     C721738   2.761   6.959   2.277
  389DIO     C821739   2.684   7.076   2.323
  389DIO     C921740   2.540   7.082   2.309
  389DIO    C1021741   2.467   6.967   2.258
  389DIO    C1121742   2.539   6.853   2.205
  389DIO    C1221743   2.684   6.849   2.217
  389DIO     F421744   2.748   6.739   2.172
  389DIO     O121745   2.335   6.988   2.225
  389DIO    C1321746   2.240   6.887   2.242
  389DIO     O221747   2.239   6.781   2.310
  389DIO    C1421748   2.111   6.920   2.180
  389DIO    C1521749   2.045   7.051   2.203
  389DIO     F521750   2.107   7.147   2.274
  389DIO    C1621751   1.914   7.083   2.149
  389DIO    C1721752   1.838   6.983   2.074
  389DIO    C1821753   1.907   6.860   2.036
  389DIO    C1921754   2.039   6.829   2.089
  389DIO     F621755   2.101   6.721   2.038
  389DIO    C2021756   1.698   7.010   2.027
  389DIO     O321757   1.628   7.107   2.107
  389DIO    C2121758   1.584   7.054   2.231
  389DIO    C2221759   1.495   6.932   2.211
  389DIO    C2321760   1.576   6.832   2.128
  389DIO     O421761   1.620   6.892   2.006
  389DIO    C2421762   1.362   6.965   2.139
  389DIO    C2521763   1.272   7.066   2.210
  389DIO    C2621764   1.233   7.026   2.351
  389DIO     H121765   2.954   6.895   2.082
  389DIO     H221766   2.913   6.997   2.510
  389DIO     H321767   2.736   7.163   2.363
  389DIO     H421768   2.484   7.171   2.335
  389DIO     H521769   2.485   6.770   2.162
  389DIO     H621770   1.876   7.183   2.162
  389DIO     H721771   1.864   6.792   1.963
  389DIO     H821772   1.707   7.056   1.928
  389DIO     H921773   1.671   7.029   2.293
  389DIO    H1021774   1.531   7.134   2.285
  389DIO    H1121775   1.473   6.887   2.308
  389DIO    H1221776   1.515   6.745   2.102
  389DIO    H1321777   1.662   6.795   2.185
  389DIO    H1421778   1.382   7.002   2.038
  389DIO    H1521779   1.306   6.872   2.127
  389DIO    H1621780   1.319   7.165   2.211
  389DIO    H1721781   1.180   7.077   2.150
  389DIO    H1821782   1.189   6.926   2.354
  389DIO    H1921783   1.320   7.028   2.418
  389DIO    H2021784   1.160   7.097   2.391
  390DIO     F121785   8.133   6.124   0.292
  390DIO     C121786   8.056   6.015   0.311
  390DIO     C221787   7.911   6.031   0.317
  390DIO     C321788   7.823   5.915   0.340
  390DIO     C421789   7.888   5.783   0.354
  390DIO     C521790   8.032   5.770   0.348
  390DIO     F221791   8.088   5.647   0.357
  390DIO     C621792   8.116   5.885   0.326
  390DIO     F321793   8.250   5.872   0.321
  390DIO     C721794   7.676   5.929   0.348
  390DIO     C821795   7.599   5.871   0.460
  390DIO     C921796   7.454   5.885   0.467
  390DIO    C1021797   7.382   5.947   0.358
  390DIO    C1121798   7.454   6.012   0.250
  390DIO    C1221799   7.598   6.000   0.244
  390DIO     F421800   7.663   6.056   0.140
  390DIO     O121801   7.250   5.978   0.382
  390DIO    C1321802   7.155   5.972   0.280
  390DIO     O221803   7.154   5.915   0.168
  390DIO    C1421804   7.026   6.029   0.319
  390DIO    C1521805   6.960   5.993   0.447
  390DIO     F521806   7.022   5.912   0.535
  390DIO    C1621807   6.829   6.044   0.484
  390DIO    C1721808   6.753   6.128   0.392
  390DIO    C1821809   6.822   6.179   0.274
  390DIO    C1921810   6.954   6.129   0.238
  390DIO     F621811   7.016   6.191   0.135
  390DIO    C2021812   6.612   6.172   0.425
  390DIO     O321813   6.543   6.083   0.513
  390DIO    C2121814   6.499   5.965   0.447
  390DIO    C2221815   6.410   5.998   0.328
  390DIO    C2321816   6.491   6.090   0.237
  390DIO     O421817   6.535   6.205   0.309
  390DIO    C2421818   6.277   6.065   0.368
  390DIO    C2521819   6.187   5.985   0.461
  390DIO    C2621820   6.148   5.848   0.407
  390DIO     H121821   7.869   6.130   0.304
  390DIO     H221822   7.828   5.693   0.362
  390DIO     H321823   7.651   5.822   0.541
  390DIO     H421824   7.399   5.850   0.553
  390DIO     H521825   7.400   6.063   0.172
  390DIO     H621826   6.791   6.020   0.583
  390DIO     H721827   6.779   6.258   0.215
  390DIO     H821828   6.622   6.266   0.481
  390DIO     H921829   6.586   5.906   0.415
  390DIO    H1021830   6.446   5.903   0.521
  390DIO    H1121831   6.388   5.906   0.273
  390DIO    H1221832   6.430   6.125   0.153
  390DIO    H1321833   6.577   6.038   0.194
  390DIO    H1421834   6.297   6.162   0.415
  390DIO    H1521835   6.221   6.088   0.276
  390DIO    H1621836   6.234   5.973   0.560
  390DIO    H1721837   6.095   6.043   0.479
  390DIO    H1821838   6.104   5.856   0.307
  390DIO    H1921839   6.235   5.781   0.402
  390DIO    H2021840   6.075   5.801   0.473
  391DIO     F121841   6.651   9.740   7.942
  391DIO     C121842   6.573   9.724   8.051
  391DIO     C221843   6.429   9.734   8.037
  391DIO     C321844   6.340   9.719   8.155
  391DIO     C421845   6.406   9.691   8.285
  391DIO     C521846   6.550   9.681   8.295
  391DIO     F221847   6.606   9.651   8.414
  391DIO     C621848   6.634   9.697   8.179
  391DIO     F321849   6.768   9.688   8.190
  391DIO     C721850   6.194   9.731   8.144
  391DIO     C821851   6.117   9.819   8.234
  391DIO     C921852   5.972   9.830   8.224
  391DIO    C1021853   5.900   9.747   8.130
  391DIO    C1121854   5.972   9.665   8.034
  391DIO    C1221855   6.116   9.656   8.043
  391DIO     F421856   6.181   9.575   7.957
  391DIO     O121857   5.767   9.779   8.109
  391DIO    C1321858   5.673   9.681   8.082
  391DIO     O221859   5.672   9.556   8.100
  391DIO    C1421860   5.544   9.736   8.040
  391DIO    C1521861   5.477   9.845   8.115
  391DIO     F521862   5.540   9.903   8.219
  391DIO    C1621863   5.347   9.897   8.078
  391DIO    C1721864   5.271   9.836   7.969
  391DIO    C1821865   5.340   9.741   7.884
  391DIO    C1921866   5.471   9.690   7.919
  391DIO     F621867   5.534   9.613   7.828
  391DIO    C2021868   5.130   9.881   7.938
  391DIO     O321869   5.060   9.936   8.050
  391DIO    C2121870   5.017   9.837   8.142
  391DIO    C2221871   4.928   9.734   8.073
  391DIO    C2321872   5.009   9.677   7.956
  391DIO     O421873   5.053   9.782   7.870
  391DIO    C2421874   4.795   9.793   8.021
  391DIO    C2521875   4.704   9.857   8.127
  391DIO    C2621876   4.666   9.762   8.239
  391DIO     H121877   6.387   9.754   7.940
  391DIO     H221878   6.345   9.669   8.372
  391DIO     H321879   6.168   9.881   8.307
  391DIO     H421880   5.917   9.901   8.284
  391DIO     H521881   5.918   9.607   7.961
  391DIO     H621882   5.309   9.983   8.132
  391DIO     H721883   5.297   9.709   7.789
  391DIO     H821884   5.140   9.964   7.866
  391DIO     H921885   5.103   9.788   8.188
  391DIO    H1021886   4.964   9.887   8.223
  391DIO    H1121887   4.905   9.652   8.142
  391DIO    H1221888   4.948   9.609   7.896
  391DIO    H1321889   5.095   9.620   7.992
  391DIO    H1421890   4.815   9.869   7.944
  391DIO    H1521891   4.739   9.714   7.971
  391DIO    H1621892   4.752   9.946   8.169
  391DIO    H1721893   4.613   9.891   8.078
  391DIO    H1821894   4.622   9.670   8.200
  391DIO    H1921895   4.753   9.736   8.301
  391DIO    H2021896   4.592   9.809   8.305
  392DIO     F121897   6.862   8.333   8.225
  392DIO     C121898   6.785   8.398   8.314
  392DIO     C221899   6.640   8.397   8.297
  392DIO     C321900   6.552   8.469   8.390
  392DIO     C421901   6.617   8.542   8.502
  392DIO     C521902   6.761   8.542   8.516
  392DIO     F221903   6.817   8.605   8.622
  392DIO     C621904   6.845   8.470   8.423
  392DIO     F321905   6.979   8.472   8.437
  392DIO     C721906   6.405   8.470   8.374
  392DIO     C821907   6.328   8.596   8.375
  392DIO     C921908   6.183   8.596   8.360
  392DIO    C1021909   6.111   8.471   8.353
  392DIO    C1121910   6.183   8.345   8.344
  392DIO    C1221911   6.327   8.345   8.357
  392DIO     F421912   6.392   8.227   8.354
  392DIO     O121913   5.979   8.479   8.315
  392DIO    C1321914   5.884   8.391   8.366
  392DIO     O221915   5.883   8.316   8.468
  392DIO    C1421916   5.755   8.399   8.297
  392DIO    C1521917   5.689   8.529   8.272
  392DIO     F521918   5.751   8.645   8.305
  392DIO    C1621919   5.558   8.540   8.210
  392DIO    C1721920   5.482   8.420   8.176
  392DIO    C1821921   5.551   8.292   8.184
  392DIO    C1921922   5.683   8.282   8.245
  392DIO     F621923   5.745   8.162   8.236
  392DIO    C2021924   5.341   8.429   8.122
  392DIO     O321925   5.272   8.548   8.162
  392DIO    C2121926   5.228   8.543   8.298
  392DIO    C2221927   5.139   8.421   8.322
  392DIO    C2321928   5.220   8.298   8.280
  392DIO     O421929   5.264   8.311   8.145
  392DIO    C2421930   5.006   8.426   8.243
  392DIO    C2521931   4.916   8.546   8.273
  392DIO    C2621932   4.877   8.560   8.419
  392DIO     H121933   6.598   8.341   8.214
  392DIO     H221934   6.557   8.588   8.579
  392DIO     H321935   6.380   8.691   8.382
  392DIO     H421936   6.128   8.689   8.352
  392DIO     H521937   6.129   8.253   8.334
  392DIO     H621938   5.520   8.639   8.187
  392DIO     H721939   5.508   8.203   8.140
  392DIO     H821940   5.351   8.437   8.013
  392DIO     H921941   5.315   8.541   8.365
  392DIO    H1021942   5.175   8.636   8.319
  392DIO    H1121943   5.117   8.413   8.429
  392DIO    H1221944   5.159   8.208   8.287
  392DIO    H1321945   5.306   8.284   8.346
  392DIO    H1421946   5.026   8.425   8.135
  392DIO    H1521947   4.950   8.335   8.265
  392DIO    H1621948   4.963   8.639   8.239
  392DIO    H1721949   4.824   8.535   8.214
  392DIO    H1821950   4.833   8.467   8.457
  392DIO    H1921951   4.964   8.585   8.481
  392DIO    H2021952   4.804   8.640   8.432
  393DIO     F121953   9.683   8.211   6.972
  393DIO     C121954   9.605   8.281   7.057
  393DIO     C221955   9.461   8.278   7.040
  393DIO     C321956   9.372   8.356   7.130
  393DIO     C421957   9.438   8.434   7.238
  393DIO     C521958   9.582   8.435   7.252
  393DIO     F221959   9.637   8.503   7.354
  393DIO     C621960   9.666   8.358   7.163
  393DIO     F321961   9.800   8.361   7.177
  393DIO     C721962   9.226   8.355   7.114
  393DIO     C821963   9.149   8.482   7.109
  393DIO     C921964   9.004   8.481   7.093
  393DIO    C1021965   8.931   8.356   7.093
  393DIO    C1121966   9.004   8.230   7.090
  393DIO    C1221967   9.148   8.230   7.103
  393DIO     F421968   9.213   8.112   7.106
  393DIO     O121969   8.799   8.362   7.054
  393DIO    C1321970   8.705   8.276   7.110
  393DIO     O221971   8.704   8.206   7.215
  393DIO    C1421972   8.576   8.281   7.041
  393DIO    C1521973   8.509   8.410   7.009
  393DIO     F521974   8.572   8.526   7.036
  393DIO    C1621975   8.379   8.417   6.947
  393DIO    C1721976   8.303   8.296   6.919
  393DIO    C1821977   8.372   8.168   6.933
  393DIO    C1921978   8.503   8.161   6.994
  393DIO     F621979   8.566   8.041   6.991
  393DIO    C2021980   8.162   8.302   6.865
  393DIO     O321981   8.092   8.422   6.898
  393DIO    C2121982   8.049   8.424   7.034
  393DIO    C2221983   7.960   8.304   7.064
  393DIO    C2321984   8.041   8.180   7.029
  393DIO     O421985   8.085   8.185   6.893
  393DIO    C2421986   7.827   8.306   6.985
  393DIO    C2521987   7.736   8.427   7.009
  393DIO    C2621988   7.698   8.447   7.155
  393DIO     H121989   9.418   8.218   6.961
  393DIO     H221990   9.377   8.484   7.312
  393DIO     H321991   9.200   8.577   7.111
  393DIO     H421992   8.949   8.573   7.081
  393DIO     H521993   8.950   8.136   7.085
  393DIO     H621994   8.340   8.515   6.919
  393DIO     H721995   8.329   8.077   6.894
  393DIO     H821996   8.172   8.304   6.755
  393DIO     H921997   8.135   8.426   7.101
  393DIO    H1021998   7.996   8.519   7.051
  393DIO    H1121999   7.937   8.302   7.171
  393DIO    H1222000   7.979   8.089   7.040
  393DIO    H1322001   8.127   8.168   7.095
  393DIO    H1422002   7.847   8.299   6.878
  393DIO    H1522003   7.771   8.215   7.011
  393DIO    H1622004   7.784   8.518   6.970
  393DIO    H1722005   7.645   8.413   6.950
  393DIO    H1822006   7.654   8.357   7.197
  393DIO    H1922007   7.784   8.476   7.215
  393DIO    H2022008   7.624   8.528   7.163
  394DIO     F122009   3.324   8.416   7.869
  394DIO     C122010   3.246   8.466   7.968
  394DIO     C222011   3.102   8.467   7.951
  394DIO     C322012   3.013   8.523   8.055
  394DIO     C422013   3.079   8.574   8.178
  394DIO     C522014   3.223   8.572   8.192
  394DIO     F222015   3.278   8.616   8.307
  394DIO     C622016   3.307   8.518   8.088
  394DIO     F322017   3.440   8.517   8.102
  394DIO     C722018   2.867   8.526   8.039
  394DIO     C822019   2.790   8.650   8.062
  394DIO     C922020   2.645   8.653   8.047
  394DIO    C1022021   2.572   8.530   8.019
  394DIO    C1122022   2.645   8.408   7.989
  394DIO    C1222023   2.789   8.406   8.001
  394DIO     F422024   2.854   8.290   7.978
  394DIO     O122025   2.440   8.545   7.983
  394DIO    C1322026   2.346   8.449   8.018
  394DIO     O222027   2.345   8.358   8.105
  394DIO    C1422028   2.217   8.470   7.952
  394DIO    C1522029   2.150   8.602   7.950
  394DIO     F522030   2.213   8.710   8.001
  394DIO    C1622031   2.019   8.623   7.890
  394DIO    C1722032   1.944   8.511   7.836
  394DIO    C1822033   2.012   8.383   7.822
  394DIO    C1922034   2.144   8.363   7.880
  394DIO     F622035   2.207   8.247   7.850
  394DIO    C2022036   1.803   8.529   7.784
  394DIO     O322037   1.733   8.639   7.844
  394DIO    C2122038   1.690   8.611   7.977
  394DIO    C2222039   1.601   8.487   7.980
  394DIO    C2322040   1.681   8.373   7.917
  394DIO     O422041   1.726   8.408   7.786
  394DIO    C2422042   1.468   8.506   7.903
  394DIO    C2522043   1.377   8.618   7.953
  394DIO    C2622044   1.339   8.606   8.100
  394DIO     H122045   3.059   8.426   7.860
  394DIO     H222046   3.018   8.607   8.261
  394DIO     H322047   2.841   8.742   8.086
  394DIO     H422048   2.590   8.745   8.056
  394DIO     H522049   2.590   8.319   7.962
  394DIO     H622050   1.981   8.724   7.884
  394DIO     H722051   1.970   8.303   7.763
  394DIO     H822052   1.813   8.555   7.678
  394DIO     H922053   1.776   8.597   8.042
  394DIO    H1022054   1.637   8.699   8.014
  394DIO    H1122055   1.578   8.461   8.084
  394DIO    H1222056   1.620   8.283   7.908
  394DIO    H1322057   1.768   8.347   7.980
  394DIO    H1422058   1.488   8.523   7.796
  394DIO    H1522059   1.411   8.412   7.908
  394DIO    H1622060   1.425   8.716   7.936
  394DIO    H1722061   1.285   8.618   7.893
  394DIO    H1822062   1.295   8.508   8.121
  394DIO    H1922063   1.425   8.620   8.165
  394DIO    H2022064   1.265   8.683   8.126
  395DIO     F122065   3.430   9.840   5.246
  395DIO     C122066   3.353   9.731   5.254
  395DIO     C222067   3.208   9.746   5.262
  395DIO     C322068   3.120   9.628   5.273
  395DIO     C422069   3.185   9.495   5.273
  395DIO     C522070   3.329   9.482   5.266
  395DIO     F222071   3.385   9.360   5.263
  395DIO     C622072   3.413   9.600   5.256
  395DIO     F322073   3.547   9.587   5.250
  395DIO     C722074   2.973   9.641   5.282
  395DIO     C822075   2.896   9.572   5.388
  395DIO     C922076   2.751   9.585   5.396
  395DIO    C1022077   2.679   9.658   5.294
  395DIO    C1122078   2.751   9.733   5.193
  395DIO    C1222079   2.895   9.723   5.186
  395DIO     F422080   2.960   9.789   5.088
  395DIO     O122081   2.547   9.686   5.321
  395DIO    C1322082   2.452   9.690   5.219
  395DIO     O222083   2.451   9.645   5.101
  395DIO    C1422084   2.323   9.744   5.264
  395DIO    C1522085   2.257   9.695   5.387
  395DIO     F522086   2.319   9.606   5.466
  395DIO    C1622087   2.126   9.741   5.429
  395DIO    C1722088   2.050   9.834   5.346
  395DIO    C1822089   2.119   9.897   5.234
  395DIO    C1922090   2.251   9.851   5.193
  395DIO     F622091   2.313   9.923   5.097
  395DIO    C2022092   1.909   9.875   5.383
  395DIO     O322093   1.840   9.778   5.461
  395DIO    C2122094   1.796   9.666   5.384
  395DIO    C2222095   1.707   9.711   5.269
  395DIO    C2322096   1.788   9.813   5.188
  395DIO     O422097   1.832   9.920   5.271
  395DIO    C2422098   1.574   9.775   5.316
  395DIO    C2522099   1.484   9.685   5.401
  395DIO    C2622100   1.445   9.555   5.333
  395DIO     H122101   3.166   9.845   5.259
  395DIO     H222102   3.125   9.405   5.272
  395DIO     H322103   2.948   9.515   5.464
  395DIO     H422104   2.696   9.541   5.478
  395DIO     H522105   2.697   9.792   5.120
  395DIO     H622106   2.088   9.708   5.525
  395DIO     H722107   2.076   9.982   5.183
  395DIO     H822108   1.919   9.963   5.448
  395DIO     H922109   1.883   9.611   5.347
  395DIO    H1022110   1.743   9.598   5.451
  395DIO    H1122111   1.685   9.625   5.205
  395DIO    H1222112   1.727   9.856   5.108
  395DIO    H1322113   1.874   9.765   5.140
  395DIO    H1422114   1.594   9.866   5.373
  395DIO    H1522115   1.518   9.806   5.227
  395DIO    H1622116   1.531   9.664   5.497
  395DIO    H1722117   1.392   9.741   5.423
  395DIO    H1822118   1.401   9.573   5.234
  395DIO    H1922119   1.532   9.489   5.321
  395DIO    H2022120   1.372   9.501   5.394
  396DIO     F122121   5.942   3.053   5.272
  396DIO     C122122   5.865   3.159   5.303
  396DIO     C222123   5.721   3.147   5.291
  396DIO     C322124   5.632   3.261   5.321
  396DIO     C422125   5.697   3.386   5.367
  396DIO     C522126   5.842   3.395   5.379
  396DIO     F222127   5.897   3.509   5.425
  396DIO     C622128   5.925   3.282   5.347
  396DIO     F322129   6.059   3.292   5.357
  396DIO     C722130   5.485   3.252   5.308
  396DIO     C822131   5.408   3.354   5.233
  396DIO     C922132   5.264   3.345   5.221
  396DIO    C1022133   5.191   3.241   5.291
  396DIO    C1122134   5.264   3.135   5.360
  396DIO    C1222135   5.408   3.142   5.370
  396DIO     F422136   5.473   3.046   5.438
  396DIO     O122137   5.059   3.224   5.256
  396DIO    C1322138   4.964   3.184   5.350
  396DIO     O222139   4.963   3.185   5.476
  396DIO    C1422140   4.835   3.150   5.289
  396DIO    C1522141   4.769   3.239   5.191
  396DIO     F522142   4.832   3.350   5.148
  396DIO    C1622143   4.638   3.210   5.136
  396DIO    C1722144   4.562   3.094   5.181
  396DIO    C1822145   4.631   2.996   5.264
  396DIO    C1922146   4.763   3.024   5.318
  396DIO     F622147   4.825   2.923   5.383
  396DIO    C2022148   4.422   3.068   5.132
  396DIO     O322149   4.352   3.187   5.092
  396DIO    C2122150   4.308   3.264   5.204
  396DIO    C2222151   4.219   3.182   5.296
  396DIO    C2322152   4.300   3.059   5.336
  396DIO     O422153   4.344   2.987   5.221
  396DIO    C2422154   4.087   3.139   5.230
  396DIO    C2522155   3.996   3.252   5.182
  396DIO    C2622156   3.957   3.351   5.291
  396DIO     H122157   5.678   3.053   5.258
  396DIO     H222158   5.637   3.470   5.400
  396DIO     H322159   5.460   3.434   5.182
  396DIO     H422160   5.209   3.414   5.159
  396DIO     H522161   5.209   3.054   5.407
  396DIO     H622162   4.600   3.274   5.057
  396DIO     H722163   4.588   2.898   5.282
  396DIO     H822164   4.431   3.009   5.040
  396DIO     H922165   4.395   3.303   5.258
  396DIO    H1022166   4.255   3.352   5.165
  396DIO    H1122167   4.197   3.240   5.386
  396DIO    H1222168   4.239   2.990   5.396
  396DIO    H1322169   4.386   3.087   5.398
  396DIO    H1422170   4.106   3.073   5.145
  396DIO    H1522171   4.030   3.078   5.302
  396DIO    H1622172   4.043   3.306   5.099
  396DIO    H1722173   3.904   3.208   5.141
  396DIO    H1822174   3.914   3.300   5.377
  396DIO    H1922175   4.044   3.409   5.325
  396DIO    H2022176   3.884   3.422   5.252
  397DIO     F122177   5.678   6.481   3.727
  397DIO     C122178   5.601   6.506   3.620
  397DIO     C222179   5.457   6.495   3.632
  397DIO     C322180   5.368   6.520   3.516
  397DIO     C422181   5.433   6.559   3.389
  397DIO     C522182   5.578   6.570   3.380
  397DIO     F222183   5.633   6.611   3.264
  397DIO     C622184   5.661   6.545   3.495
  397DIO     F322185   5.795   6.554   3.484
  397DIO     C722186   5.221   6.507   3.526
  397DIO     C822187   5.144   6.427   3.429
  397DIO     C922188   5.000   6.415   3.438
  397DIO    C1022189   4.927   6.491   3.539
  397DIO    C1122190   5.000   6.564   3.641
  397DIO    C1222191   5.144   6.574   3.633
  397DIO     F422192   5.209   6.647   3.726
  397DIO     O122193   4.795   6.456   3.557
  397DIO    C1322194   4.700   6.552   3.592
  397DIO     O222195   4.699   6.678   3.585
  397DIO    C1422196   4.571   6.493   3.629
  397DIO    C1522197   4.505   6.391   3.545
  397DIO     F522198   4.568   6.342   3.436
  397DIO    C1622199   4.374   6.337   3.577
  397DIO    C1722200   4.298   6.387   3.691
  397DIO    C1822201   4.367   6.475   3.785
  397DIO    C1922202   4.499   6.528   3.754
  397DIO     F622203   4.561   6.597   3.851
  397DIO    C2022204   4.158   6.340   3.719
  397DIO     O322205   4.088   6.295   3.602
  397DIO    C2122206   4.044   6.402   3.519
  397DIO    C2222207   3.955   6.498   3.597
  397DIO    C2322208   4.036   6.544   3.718
  397DIO     O422209   4.080   6.433   3.795
  397DIO    C2422210   3.823   6.434   3.643
  397DIO    C2522211   3.732   6.381   3.532
  397DIO    C2622212   3.693   6.485   3.428
  397DIO     H122213   5.414   6.467   3.728
  397DIO     H222214   5.373   6.589   3.304
  397DIO     H322215   5.196   6.372   3.351
  397DIO     H422216   4.945   6.350   3.372
  397DIO     H522217   4.945   6.615   3.719
  397DIO     H622218   4.336   6.255   3.516
  397DIO     H722219   4.324   6.498   3.881
  397DIO     H822220   4.167   6.251   3.782
  397DIO     H922221   4.131   6.454   3.478
  397DIO    H1022222   3.991   6.359   3.434
  397DIO    H1122223   3.933   6.585   3.535
  397DIO    H1222224   3.975   6.608   3.784
  397DIO    H1322225   4.122   6.605   3.687
  397DIO    H1422226   3.842   6.352   3.713
  397DIO    H1522227   3.766   6.509   3.700
  397DIO    H1622228   3.779   6.295   3.483
  397DIO    H1722229   3.640   6.342   3.578
  397DIO    H1822230   3.650   6.573   3.475
  397DIO    H1922231   3.780   6.516   3.369
  397DIO    H2022232   3.620   6.443   3.359
  398DIO     F122233   7.806   3.022   9.536
  398DIO     C122234   7.729   2.984   9.639
  398DIO     C222235   7.585   2.997   9.628
  398DIO     C322236   7.496   2.958   9.740
  398DIO     C422237   7.561   2.903   9.861
  398DIO     C522238   7.706   2.891   9.869
  398DIO     F222239   7.761   2.837   9.979
  398DIO     C622240   7.789   2.931   9.758
  398DIO     F322241   7.923   2.920   9.768
  398DIO     C722242   7.350   2.972   9.731
  398DIO     C822243   7.272   3.039   9.838
  398DIO     C922244   7.128   3.052   9.830
  398DIO    C1022245   7.055   2.990   9.721
  398DIO    C1122246   7.128   2.929   9.611
  398DIO    C1222247   7.272   2.919   9.618
  398DIO     F422248   7.337   2.857   9.516
  398DIO     O122249   6.923   3.026   9.707
  398DIO    C1322250   6.828   2.935   9.661
  398DIO     O222251   6.828   2.809   9.653
  398DIO    C1422252   6.699   2.998   9.631
  398DIO    C1522253   6.633   3.089   9.726
  398DIO     F522254   6.696   3.124   9.841
  398DIO    C1622255   6.502   3.147   9.702
  398DIO    C1722256   6.426   3.111   9.583
  398DIO    C1822257   6.495   3.035   9.479
  398DIO    C1922258   6.627   2.978   9.503
  398DIO     F622259   6.689   2.921   9.398
  398DIO    C2022260   6.286   3.161   9.561
  398DIO     O322261   6.216   3.192   9.682
  398DIO    C2122262   6.172   3.075   9.751
  398DIO    C2222263   6.083   2.989   9.662
  398DIO    C2322264   6.164   2.958   9.536
  398DIO     O422265   6.208   3.078   9.474
  398DIO    C2422266   5.951   3.058   9.624
  398DIO    C2522267   5.860   3.098   9.741
  398DIO    C2622268   5.822   2.982   9.831
  398DIO     H122269   7.542   3.036   9.536
  398DIO     H222270   7.501   2.864   9.942
  398DIO     H322271   7.324   3.084   9.922
  398DIO     H422272   7.073   3.109   9.904
  398DIO     H522273   7.073   2.888   9.527
  398DIO     H622274   6.464   3.220   9.772
  398DIO     H722275   6.452   3.024   9.380
  398DIO     H822276   6.295   3.257   9.508
  398DIO     H922277   6.259   3.018   9.786
  398DIO    H1022278   6.120   3.108   9.841
  398DIO    H1122279   6.061   2.895   9.714
  398DIO    H1222280   6.103   2.903   9.464
  398DIO    H1322281   6.250   2.894   9.560
  398DIO    H1422282   5.971   3.148   9.565
  398DIO    H1522283   5.894   2.990   9.559
  398DIO    H1622284   5.907   3.177   9.801
  398DIO    H1722285   5.768   3.142   9.700
  398DIO    H1822286   5.778   2.900   9.774
  398DIO    H1922287   5.908   2.944   9.886
  398DIO    H2022288   5.748   3.015   9.905
  399DIO     F122289   5.142   3.182   9.403
  399DIO     C122290   5.064   3.117   9.314
  399DIO     C222291   4.920   3.119   9.331
  399DIO     C322292   4.831   3.048   9.236
  399DIO     C422293   4.897   2.977   9.123
  399DIO     C522294   5.041   2.977   9.109
  399DIO     F222295   5.097   2.916   9.003
  399DIO     C622296   5.125   3.047   9.203
  399DIO     F322297   5.259   3.046   9.189
  399DIO     C722298   4.685   3.047   9.252
  399DIO     C822299   4.608   2.921   9.249
  399DIO     C922300   4.463   2.920   9.264
  399DIO    C1022301   4.391   3.046   9.273
  399DIO    C1122302   4.463   3.171   9.284
  399DIO    C1222303   4.607   3.171   9.271
  399DIO     F422304   4.672   3.289   9.277
  399DIO     O122305   4.258   3.037   9.311
  399DIO    C1322306   4.164   3.126   9.261
  399DIO     O222307   4.163   3.203   9.161
  399DIO    C1422308   4.035   3.116   9.330
  399DIO    C1522309   3.968   2.986   9.353
  399DIO     F522310   4.031   2.871   9.319
  399DIO    C1622311   3.838   2.974   9.415
  399DIO    C1722312   3.762   3.094   9.451
  399DIO    C1822313   3.831   3.222   9.445
  399DIO    C1922314   3.962   3.233   9.385
  399DIO     F622315   4.025   3.352   9.396
  399DIO    C2022316   3.621   3.084   9.505
  399DIO     O322317   3.551   2.966   9.463
  399DIO    C2122318   3.508   2.973   9.327
  399DIO    C2222319   3.419   3.095   9.305
  399DIO    C2322320   3.500   3.217   9.349
  399DIO     O422321   3.544   3.202   9.484
  399DIO    C2422322   3.286   3.088   9.384
  399DIO    C2522323   3.195   2.969   9.352
  399DIO    C2622324   3.157   2.958   9.205
  399DIO     H122325   4.878   3.174   9.414
  399DIO     H222326   4.836   2.932   9.046
  399DIO     H322327   4.659   2.826   9.240
  399DIO     H422328   4.408   2.827   9.270
  399DIO     H522329   4.409   3.264   9.296
  399DIO     H622330   3.800   2.875   9.436
  399DIO     H722331   3.788   3.310   9.491
  399DIO     H822332   3.631   3.074   9.613
  399DIO     H922333   3.594   2.976   9.261
  399DIO    H1022334   3.455   2.880   9.304
  399DIO    H1122335   3.396   3.104   9.198
  399DIO    H1222336   3.439   3.308   9.344
  399DIO    H1322337   3.586   3.233   9.283
  399DIO    H1422338   3.306   3.088   9.492
  399DIO    H1522339   3.230   3.180   9.364
  399DIO    H1622340   3.243   2.876   9.384
  399DIO    H1722341   3.104   2.979   9.412
  399DIO    H1822342   3.113   3.052   9.169
  399DIO    H1922343   3.244   2.934   9.143
  399DIO    H2022344   3.083   2.878   9.192
  400DIO     F122345   6.418   8.142   5.221
  400DIO     C122346   6.340   8.132   5.331
  400DIO     C222347   6.196   8.142   5.317
  400DIO     C322348   6.107   8.134   5.435
  400DIO     C422349   6.173   8.114   5.566
  400DIO     C522350   6.317   8.104   5.577
  400DIO     F222351   6.373   8.081   5.698
  400DIO     C622352   6.401   8.113   5.460
  400DIO     F322353   6.535   8.105   5.472
  400DIO     C722354   5.961   8.145   5.423
  400DIO     C822355   5.884   8.239   5.508
  400DIO     C922356   5.739   8.249   5.497
  400DIO    C1022357   5.667   8.160   5.409
  400DIO    C1122358   5.739   8.072   5.318
  400DIO    C1222359   5.883   8.064   5.328
  400DIO     F422360   5.948   7.978   5.247
  400DIO     O122361   5.534   8.191   5.385
  400DIO    C1322362   5.440   8.091   5.365
  400DIO     O222363   5.439   7.968   5.391
  400DIO    C1422364   5.311   8.144   5.319
  400DIO    C1522365   5.244   8.257   5.387
  400DIO     F522366   5.307   8.322   5.488
  400DIO    C1622367   5.114   8.306   5.348
  400DIO    C1722368   5.038   8.240   5.243
  400DIO    C1822369   5.107   8.139   5.163
  400DIO    C1922370   5.238   8.091   5.202
  400DIO     F622371   5.301   8.008   5.115
  400DIO    C2022372   4.897   8.282   5.208
  400DIO     O322373   4.827   8.344   5.317
  400DIO    C2122374   4.784   8.250   5.415
  400DIO    C2222375   4.695   8.144   5.352
  400DIO    C2322376   4.776   8.080   5.239
  400DIO     O422377   4.820   8.179   5.146
  400DIO    C2422378   4.562   8.200   5.297
  400DIO    C2522379   4.471   8.270   5.399
  400DIO    C2622380   4.433   8.182   5.517
  400DIO     H122381   6.154   8.155   5.218
  400DIO     H222382   6.112   8.098   5.655
  400DIO     H322383   5.935   8.305   5.577
  400DIO     H422384   5.684   8.323   5.553
  400DIO     H522385   5.685   8.010   5.249
  400DIO     H622386   5.076   8.396   5.396
  400DIO     H722387   5.064   8.102   5.071
  400DIO     H822388   4.907   8.361   5.132
  400DIO     H922389   4.870   8.205   5.464
  400DIO    H1022390   4.731   8.306   5.493
  400DIO    H1122391   4.672   8.067   5.427
  400DIO    H1222392   4.715   8.008   5.184
  400DIO    H1322393   4.862   8.025   5.279
  400DIO    H1422394   4.582   8.271   5.215
  400DIO    H1522395   4.506   8.117   5.252
  400DIO    H1622396   4.519   8.361   5.435
  400DIO    H1722397   4.380   8.301   5.347
  400DIO    H1822398   4.389   8.087   5.483
  400DIO    H1922399   4.520   8.159   5.580
  400DIO    H2022400   4.359   8.233   5.579
  401DIO     F122401   6.027   2.729   5.712
  401DIO     C122402   5.950   2.632   5.763
  401DIO     C222403   5.806   2.649   5.764
  401DIO     C322404   5.717   2.545   5.821
  401DIO     C422405   5.782   2.423   5.873
  401DIO     C522406   5.927   2.408   5.871
  401DIO     F222407   5.982   2.294   5.917
  401DIO     C622408   6.010   2.512   5.816
  401DIO     F322409   6.144   2.498   5.815
  401DIO     C722410   5.570   2.560   5.823
  401DIO     C822411   5.493   2.539   5.948
  401DIO     C922412   5.349   2.554   5.951
  401DIO    C1022413   5.276   2.581   5.828
  401DIO    C1122414   5.348   2.610   5.706
  401DIO    C1222415   5.493   2.598   5.704
  401DIO     F422416   5.557   2.620   5.588
  401DIO     O122417   5.144   2.617   5.842
  401DIO    C1322418   5.049   2.581   5.747
  401DIO     O222419   5.048   2.493   5.656
  401DIO    C1422420   4.920   2.648   5.767
  401DIO    C1522421   4.854   2.651   5.899
  401DIO     F522422   4.916   2.600   6.007
  401DIO    C1622423   4.723   2.710   5.919
  401DIO    C1722424   4.647   2.764   5.807
  401DIO    C1822425   4.716   2.777   5.679
  401DIO    C1922426   4.848   2.719   5.659
  401DIO     F622427   4.910   2.747   5.543
  401DIO    C2022428   4.507   2.815   5.825
  401DIO     O322429   4.437   2.757   5.935
  401DIO    C2122430   4.393   2.624   5.908
  401DIO    C2222431   4.304   2.620   5.784
  401DIO    C2322432   4.385   2.681   5.670
  401DIO     O422433   4.429   2.812   5.704
  401DIO    C2422434   4.171   2.697   5.802
  401DIO    C2522435   4.081   2.648   5.915
  401DIO    C2622436   4.042   2.501   5.905
  401DIO     H122437   5.763   2.739   5.722
  401DIO     H222438   5.722   2.339   5.907
  401DIO     H322439   5.545   2.516   6.040
  401DIO     H422440   5.293   2.546   6.043
  401DIO     H522441   5.294   2.636   5.616
  401DIO     H622442   4.685   2.717   6.021
  401DIO     H722443   4.673   2.835   5.598
  401DIO     H822444   4.516   2.922   5.850
  401DIO     H922445   4.480   2.558   5.895
  401DIO    H1022446   4.340   2.587   5.996
  401DIO    H1122447   4.282   2.516   5.759
  401DIO    H1222448   4.324   2.689   5.579
  401DIO    H1322449   4.471   2.618   5.644
  401DIO    H1422450   4.191   2.803   5.819
  401DIO    H1522451   4.115   2.690   5.708
  401DIO    H1622452   4.128   2.666   6.013
  401DIO    H1722453   3.989   2.708   5.915
  401DIO    H1822454   3.998   2.479   5.807
  401DIO    H1922455   4.129   2.436   5.919
  401DIO    H2022456   3.969   2.476   5.981
  402DIO     F122457   9.033   7.370   8.265
  402DIO     C122458   8.955   7.424   8.361
  402DIO     C222459   8.811   7.424   8.344
  402DIO     C322460   8.723   7.485   8.446
  402DIO     C422461   8.788   7.543   8.565
  402DIO     C522462   8.932   7.541   8.580
  402DIO     F222463   8.988   7.591   8.692
  402DIO     C622464   9.016   7.482   8.479
  402DIO     F322465   9.150   7.482   8.493
  402DIO     C722466   8.576   7.487   8.430
  402DIO     C822467   8.499   7.612   8.447
  402DIO     C922468   8.354   7.615   8.432
  402DIO    C1022469   8.282   7.491   8.409
  402DIO    C1122470   8.354   7.368   8.385
  402DIO    C1222471   8.498   7.366   8.397
  402DIO     F422472   8.563   7.249   8.379
  402DIO     O122473   8.150   7.504   8.372
  402DIO    C1322474   8.055   7.410   8.412
  402DIO     O222475   8.054   7.323   8.504
  402DIO    C1422476   7.926   7.427   8.345
  402DIO    C1522477   7.860   7.559   8.337
  402DIO     F522478   7.922   7.669   8.383
  402DIO    C1622479   7.729   7.577   8.276
  402DIO    C1722480   7.653   7.463   8.228
  402DIO    C1822481   7.722   7.334   8.219
  402DIO    C1922482   7.853   7.317   8.278
  402DIO     F622483   7.916   7.199   8.254
  402DIO    C2022484   7.512   7.478   8.175
  402DIO     O322485   7.443   7.591   8.229
  402DIO    C2122486   7.399   7.569   8.363
  402DIO    C2222487   7.310   7.445   8.372
  402DIO    C2322488   7.391   7.329   8.315
  402DIO     O422489   7.435   7.358   8.183
  402DIO    C2422490   7.177   7.461   8.295
  402DIO    C2522491   7.087   7.576   8.339
  402DIO    C2622492   7.048   7.571   8.486
  402DIO     H122493   8.769   7.379   8.255
  402DIO     H222494   8.727   7.580   8.648
  402DIO     H322495   8.551   7.706   8.466
  402DIO     H422496   8.299   7.708   8.436
  402DIO     H522497   8.300   7.277   8.363
  402DIO     H622498   7.691   7.678   8.265
  402DIO     H722499   7.679   7.251   8.164
  402DIO     H822500   7.522   7.500   8.068
  402DIO     H922501   7.486   7.559   8.429
  402DIO    H1022502   7.346   7.659   8.396
  402DIO    H1122503   7.288   7.424   8.477
  402DIO    H1222504   7.330   7.238   8.311
  402DIO    H1322505   7.477   7.306   8.379
  402DIO    H1422506   7.197   7.473   8.187
  402DIO    H1522507   7.121   7.367   8.305
  402DIO    H1622508   7.134   7.672   8.317
  402DIO    H1722509   6.995   7.572   8.279
  402DIO    H1822510   7.004   7.474   8.512
  402DIO    H1922511   7.135   7.588   8.551
  402DIO    H2022512   6.975   7.648   8.508
  403DIO     F122513   7.675   8.572   3.906
  403DIO     C122514   7.597   8.672   3.860
  403DIO     C222515   7.453   8.655   3.858
  403DIO     C322516   7.364   8.761   3.806
  403DIO     C422517   7.430   8.885   3.759
  403DIO     C522518   7.574   8.900   3.762
  403DIO     F222519   7.630   9.016   3.722
  403DIO     C622520   7.658   8.794   3.812
  403DIO     F322521   7.792   8.808   3.813
  403DIO     C722522   7.218   8.746   3.803
  403DIO     C822523   7.141   8.773   3.679
  403DIO     C922524   6.996   8.758   3.676
  403DIO    C1022525   6.924   8.725   3.797
  403DIO    C1122526   6.996   8.691   3.918
  403DIO    C1222527   7.140   8.703   3.921
  403DIO     F422528   7.205   8.675   4.036
  403DIO     O122529   6.791   8.690   3.781
  403DIO    C1322530   6.697   8.722   3.878
  403DIO     O222531   6.696   8.805   3.973
  403DIO    C1422532   6.568   8.656   3.855
  403DIO    C1522533   6.501   8.659   3.723
  403DIO     F522534   6.564   8.714   3.617
  403DIO    C1622535   6.371   8.600   3.700
  403DIO    C1722536   6.295   8.542   3.810
  403DIO    C1822537   6.364   8.523   3.937
  403DIO    C1922538   6.495   8.580   3.960
  403DIO     F622539   6.558   8.546   4.075
  403DIO    C2022540   6.154   8.491   3.790
  403DIO     O322541   6.084   8.555   3.682
  403DIO    C2122542   6.041   8.686   3.715
  403DIO    C2222543   5.952   8.684   3.839
  403DIO    C2322544   6.033   8.618   3.951
  403DIO     O422545   6.077   8.488   3.910
  403DIO    C2422546   5.819   8.609   3.818
  403DIO    C2522547   5.728   8.663   3.707
  403DIO    C2622548   5.690   8.809   3.724
  403DIO     H122549   7.411   8.562   3.896
  403DIO     H222550   7.369   8.970   3.729
  403DIO     H322551   7.192   8.800   3.588
  403DIO     H422552   6.941   8.770   3.583
  403DIO     H522553   6.942   8.661   4.007
  403DIO     H622554   6.333   8.598   3.598
  403DIO     H722555   6.321   8.461   4.015
  403DIO     H822556   6.164   8.386   3.760
  403DIO     H922557   6.127   8.751   3.731
  403DIO    H1022558   5.988   8.727   3.629
  403DIO    H1122559   5.929   8.787   3.869
  403DIO    H1222560   5.972   8.606   4.041
  403DIO    H1322561   6.119   8.680   3.979
  403DIO    H1422562   5.839   8.503   3.796
  403DIO    H1522563   5.763   8.610   3.912
  403DIO    H1622564   5.776   8.649   3.609
  403DIO    H1722565   5.637   8.602   3.705
  403DIO    H1822566   5.646   8.826   3.823
  403DIO    H1922567   5.777   8.875   3.712
  403DIO    H2022568   5.616   8.837   3.648
  404DIO     F122569   9.542   2.684   8.653
  404DIO     C122570   9.465   2.754   8.738
  404DIO     C222571   9.321   2.751   8.721
  404DIO     C322572   9.232   2.828   8.812
  404DIO     C422573   9.297   2.904   8.920
  404DIO     C522574   9.442   2.905   8.935
  404DIO     F222575   9.497   2.972   9.038
  404DIO     C622576   9.525   2.830   8.845
  404DIO     F322577   9.659   2.832   8.859
  404DIO     C722578   9.086   2.827   8.796
  404DIO     C822579   9.008   2.954   8.792
  404DIO     C922580   8.864   2.953   8.777
  404DIO    C1022581   8.791   2.828   8.775
  404DIO    C1122582   8.864   2.702   8.771
  404DIO    C1222583   9.008   2.702   8.783
  404DIO     F422584   9.073   2.584   8.785
  404DIO     O122585   8.659   2.834   8.736
  404DIO    C1322586   8.564   2.748   8.791
  404DIO     O222587   8.564   2.677   8.895
  404DIO    C1422588   8.435   2.754   8.722
  404DIO    C1522589   8.369   2.883   8.692
  404DIO     F522590   8.432   2.999   8.719
  404DIO    C1622591   8.238   2.891   8.629
  404DIO    C1722592   8.162   2.770   8.600
  404DIO    C1822593   8.231   2.642   8.613
  404DIO    C1922594   8.363   2.634   8.674
  404DIO     F622595   8.425   2.515   8.669
  404DIO    C2022596   8.022   2.777   8.546
  404DIO     O322597   7.952   2.897   8.581
  404DIO    C2122598   7.908   2.897   8.716
  404DIO    C2222599   7.819   2.777   8.745
  404DIO    C2322600   7.900   2.652   8.708
  404DIO     O422601   7.944   2.659   8.573
  404DIO    C2422602   7.687   2.779   8.667
  404DIO    C2522603   7.596   2.900   8.692
  404DIO    C2622604   7.558   2.919   8.837
  404DIO     H122605   9.278   2.692   8.641
  404DIO     H222606   9.237   2.954   8.995
  404DIO     H322607   9.060   3.049   8.795
  404DIO     H422608   8.809   3.046   8.765
  404DIO     H522609   8.809   2.609   8.764
  404DIO     H622610   8.200   2.989   8.602
  404DIO     H722611   8.188   2.551   8.572
  404DIO     H822612   8.031   2.780   8.436
  404DIO     H922613   7.995   2.898   8.783
  404DIO    H1022614   7.856   2.991   8.734
  404DIO    H1122615   7.797   2.773   8.853
  404DIO    H1222616   7.839   2.562   8.719
  404DIO    H1322617   7.986   2.640   8.775
  404DIO    H1422618   7.707   2.773   8.559
  404DIO    H1522619   7.630   2.688   8.692
  404DIO    H1622620   7.643   2.991   8.654
  404DIO    H1722621   7.504   2.887   8.633
  404DIO    H1822622   7.514   2.828   8.879
  404DIO    H1922623   7.644   2.947   8.898
  404DIO    H2022624   7.484   2.999   8.847
  405DIO     F122625   9.955   7.450   6.993
  405DIO     C122626   9.877   7.448   6.883
  405DIO     C222627   9.733   7.440   6.898
  405DIO     C322628   9.644   7.435   6.779
  405DIO     C422629   9.710   7.441   6.647
  405DIO     C522630   9.854   7.449   6.635
  405DIO     F222631   9.910   7.459   6.512
  405DIO     C622632   9.938   7.453   6.752
  405DIO     F322633  10.072   7.460   6.739
  405DIO     C722634   9.498   7.425   6.792
  405DIO     C822635   9.421   7.323   6.718
  405DIO     C922636   9.276   7.314   6.730
  405DIO    C1022637   9.204   7.412   6.808
  405DIO    C1122638   9.276   7.509   6.889
  405DIO    C1222639   9.420   7.516   6.879
  405DIO     F422640   9.485   7.611   6.950
  405DIO     O122641   9.071   7.383   6.835
  405DIO    C1322642   8.977   7.485   6.845
  405DIO     O222643   8.976   7.605   6.806
  405DIO    C1422644   8.848   7.438   6.896
  405DIO    C1522645   8.781   7.318   6.840
  405DIO     F522646   8.844   7.243   6.747
  405DIO    C1622647   8.651   7.273   6.884
  405DIO    C1722648   8.575   7.351   6.982
  405DIO    C1822649   8.644   7.460   7.050
  405DIO    C1922650   8.775   7.503   7.007
  405DIO     F622651   8.838   7.595   7.084
  405DIO    C2022652   8.434   7.312   7.021
  405DIO     O322653   8.364   7.239   6.919
  405DIO    C2122654   8.321   7.321   6.812
  405DIO    C2222655   8.232   7.434   6.863
  405DIO    C2322656   8.313   7.510   6.969
  405DIO     O422657   8.357   7.421   7.071
  405DIO    C2422658   8.099   7.384   6.924
  405DIO    C2522659   8.008   7.304   6.830
  405DIO    C2622660   7.970   7.379   6.703
  405DIO     H122661   9.691   7.437   6.997
  405DIO     H222662   9.649   7.448   6.557
  405DIO     H322663   9.472   7.250   6.657
  405DIO     H422664   9.221   7.234   6.682
  405DIO     H522665   9.222   7.579   6.951
  405DIO     H622666   8.613   7.179   6.846
  405DIO     H722667   8.601   7.506   7.138
  405DIO     H822668   8.444   7.242   7.105
  405DIO     H922669   8.407   7.362   6.759
  405DIO    H1022670   8.268   7.258   6.740
  405DIO    H1122671   8.209   7.503   6.780
  405DIO    H1222672   8.252   7.587   7.016
  405DIO    H1322673   8.399   7.560   6.923
  405DIO    H1422674   8.119   7.323   7.012
  405DIO    H1522675   8.043   7.471   6.960
  405DIO    H1622676   8.056   7.209   6.804
  405DIO    H1722677   7.917   7.279   6.884
  405DIO    H1822678   7.926   7.476   6.726
  405DIO    H1922679   8.057   7.394   6.638
  405DIO    H2022680   7.896   7.321   6.647
  406DIO     F122681   4.408   9.042   0.950
  406DIO     C122682   4.331   9.138   1.004
  406DIO     C222683   4.187   9.130   0.989
  406DIO     C322684   4.098   9.234   1.045
  406DIO     C422685   4.163   9.346   1.117
  406DIO     C522686   4.308   9.352   1.130
  406DIO     F222687   4.363   9.453   1.200
  406DIO     C622688   4.391   9.249   1.074
  406DIO     F322689   4.525   9.256   1.087
  406DIO     C722690   3.951   9.228   1.030
  406DIO     C822691   3.874   9.344   0.979
  406DIO     C922692   3.730   9.338   0.965
  406DIO    C1022693   3.657   9.221   1.010
  406DIO    C1122694   3.729   9.103   1.054
  406DIO    C1222695   3.874   9.108   1.065
  406DIO     F422696   3.938   8.999   1.110
  406DIO     O122697   3.525   9.212   0.972
  406DIO    C1322698   3.430   9.153   1.055
  406DIO     O222699   3.429   9.126   1.178
  406DIO    C1422700   3.301   9.133   0.989
  406DIO    C1522701   3.235   9.241   0.913
  406DIO     F522702   3.297   9.359   0.895
  406DIO    C1622703   3.104   9.226   0.852
  406DIO    C1722704   3.028   9.102   0.870
  406DIO    C1822705   3.097   8.988   0.929
  406DIO    C1922706   3.229   9.004   0.989
  406DIO     F622707   3.291   8.891   1.029
  406DIO    C2022708   2.888   9.088   0.817
  406DIO     O322709   2.818   9.213   0.805
  406DIO    C2122710   2.774   9.264   0.930
  406DIO    C2222711   2.685   9.163   1.002
  406DIO    C2322712   2.766   9.033   1.014
  406DIO     O422713   2.810   8.990   0.886
  406DIO    C2422714   2.552   9.135   0.928
  406DIO    C2522715   2.462   9.257   0.906
  406DIO    C2622716   2.423   9.329   1.035
  406DIO     H122717   4.144   9.045   0.937
  406DIO     H222718   4.103   9.420   1.168
  406DIO     H322719   3.926   9.433   0.947
  406DIO     H422720   3.674   9.420   0.920
  406DIO     H522721   3.675   9.014   1.082
  406DIO     H622722   3.066   9.306   0.790
  406DIO     H722723   3.054   8.889   0.925
  406DIO     H822724   2.897   9.051   0.714
  406DIO     H922725   2.861   9.289   0.992
  406DIO    H1022726   2.721   9.358   0.912
  406DIO    H1122727   2.663   9.199   1.103
  406DIO    H1222728   2.705   8.953   1.057
  406DIO    H1322729   2.852   9.047   1.080
  406DIO    H1422730   2.572   9.090   0.830
  406DIO    H1522731   2.496   9.060   0.985
  406DIO    H1622732   2.509   9.328   0.837
  406DIO    H1722733   2.370   9.223   0.857
  406DIO    H1822734   2.379   9.260   1.107
  406DIO    H1922735   2.510   9.377   1.081
  406DIO    H2022736   2.350   9.407   1.013
  407DIO     F122737   3.898   8.499   0.998
  407DIO     C122738   3.820   8.604   0.966
  407DIO     C222739   3.676   8.588   0.962
  407DIO     C322740   3.587   8.700   0.924
  407DIO     C422741   3.653   8.830   0.894
  407DIO     C522742   3.797   8.843   0.898
  407DIO     F222743   3.852   8.964   0.874
  407DIO     C622744   3.881   8.732   0.935
  407DIO     F322745   4.015   8.746   0.937
  407DIO     C722746   3.441   8.685   0.919
  407DIO     C822747   3.364   8.729   0.800
  407DIO     C922748   3.219   8.714   0.795
  407DIO    C1022749   3.146   8.666   0.911
  407DIO    C1122750   3.219   8.616   1.026
  407DIO    C1222751   3.363   8.627   1.030
  407DIO     F422752   3.428   8.585   1.140
  407DIO     O122753   3.014   8.633   0.890
  407DIO    C1322754   2.920   8.652   0.991
  407DIO     O222755   2.919   8.722   1.095
  407DIO    C1422756   2.791   8.589   0.959
  407DIO    C1522757   2.724   8.610   0.828
  407DIO     F522758   2.787   8.678   0.731
  407DIO    C1622759   2.594   8.555   0.798
  407DIO    C1722760   2.518   8.482   0.899
  407DIO    C1822761   2.587   8.447   1.023
  407DIO    C1922762   2.718   8.500   1.053
  407DIO     F622763   2.781   8.452   1.162
  407DIO    C2022764   2.377   8.434   0.873
  407DIO     O322765   2.307   8.512   0.774
  407DIO    C2122766   2.264   8.638   0.824
  407DIO    C2222767   2.175   8.620   0.947
  407DIO    C2322768   2.256   8.539   1.048
  407DIO     O422769   2.300   8.416   0.992
  407DIO    C2422770   2.042   8.547   0.916
  407DIO    C2522771   1.951   8.616   0.813
  407DIO    C2622772   1.913   8.758   0.849
  407DIO     H122773   3.633   8.491   0.987
  407DIO     H222774   3.592   8.918   0.875
  407DIO     H322775   3.415   8.767   0.713
  407DIO     H422776   3.164   8.738   0.705
  407DIO     H522777   3.165   8.575   1.110
  407DIO     H622778   2.555   8.566   0.697
  407DIO     H722779   2.544   8.375   1.092
  407DIO     H822780   2.387   8.334   0.829
  407DIO     H922781   2.350   8.700   0.848
  407DIO    H1022782   2.211   8.689   0.744
  407DIO    H1122783   2.152   8.718   0.990
  407DIO    H1222784   2.194   8.515   1.136
  407DIO    H1322785   2.342   8.597   1.085
  407DIO    H1422786   2.062   8.445   0.881
  407DIO    H1522787   1.986   8.537   1.009
  407DIO    H1622788   1.999   8.615   0.714
  407DIO    H1722789   1.860   8.556   0.803
  407DIO    H1822790   1.869   8.763   0.949
  407DIO    H1922791   1.999   8.825   0.846
  407DIO    H2022792   1.839   8.797   0.778
  408DIO     F122793   6.204   0.281   9.249
  408DIO     C122794   6.126   0.358   9.170
  408DIO     C222795   5.982   0.342   9.174
  408DIO     C322796   5.893   0.423   9.088
  408DIO     C422797   5.959   0.522   8.999
  408DIO     C522798   6.103   0.536   8.996
  408DIO     F222799   6.158   0.630   8.917
  408DIO     C622800   6.187   0.455   9.082
  408DIO     F322801   6.321   0.469   9.078
  408DIO     C722802   5.747   0.407   9.090
  408DIO     C822803   5.670   0.388   8.965
  408DIO     C922804   5.525   0.373   8.967
  408DIO    C1022805   5.452   0.386   9.092
  408DIO    C1122806   5.525   0.397   9.217
  408DIO    C1222807   5.669   0.409   9.215
  408DIO     F422808   5.734   0.425   9.333
  408DIO     O122809   5.320   0.347   9.090
  408DIO    C1322810   5.226   0.412   9.169
  408DIO     O222811   5.225   0.523   9.227
  408DIO    C1422812   5.097   0.342   9.171
  408DIO    C1522813   5.030   0.297   9.047
  408DIO     F522814   5.093   0.311   8.928
  408DIO    C1622815   4.900   0.234   9.046
  408DIO    C1722816   4.824   0.219   9.170
  408DIO    C1822817   4.893   0.247   9.295
  408DIO    C1922818   5.024   0.309   9.296
  408DIO     F622819   5.087   0.318   9.415
  408DIO    C2022820   4.683   0.164   9.169
  408DIO     O322821   4.613   0.185   9.046
  408DIO    C2122822   4.570   0.320   9.030
  408DIO    C2222823   4.481   0.363   9.146
  408DIO    C2322824   4.562   0.341   9.274
  408DIO     O422825   4.606   0.205   9.283
  408DIO    C2422826   4.348   0.284   9.153
  408DIO    C2522827   4.257   0.295   9.030
  408DIO    C2622828   4.219   0.438   8.994
  408DIO     H122829   5.939   0.269   9.242
  408DIO     H222830   5.898   0.590   8.941
  408DIO     H322831   5.721   0.380   8.870
  408DIO     H422832   5.470   0.351   8.877
  408DIO     H522833   5.471   0.401   9.311
  408DIO     H622834   4.861   0.196   8.952
  408DIO     H722835   4.850   0.217   9.390
  408DIO     H822836   4.693   0.056   9.179
  408DIO     H922837   4.656   0.386   9.021
  408DIO    H1022838   4.517   0.327   8.934
  408DIO    H1122839   4.458   0.470   9.137
  408DIO    H1222840   4.500   0.361   9.362
  408DIO    H1322841   4.648   0.408   9.278
  408DIO    H1422842   4.368   0.178   9.171
  408DIO    H1522843   4.292   0.320   9.240
  408DIO    H1622844   4.305   0.247   8.944
  408DIO    H1722845   4.166   0.238   9.050
  408DIO    H1822846   4.175   0.490   9.080
  408DIO    H1922847   4.305   0.495   8.959
  408DIO    H2022848   4.145   0.437   8.913
  409DIO     F122849   3.209   5.037   2.642
  409DIO     C122850   3.131   5.017   2.534
  409DIO     C222851   2.987   5.011   2.550
  409DIO     C322852   2.898   4.986   2.434
  409DIO     C422853   2.964   4.970   2.302
  409DIO     C522854   3.108   4.977   2.289
  409DIO     F222855   3.163   4.966   2.167
  409DIO     C622856   3.192   5.000   2.404
  409DIO     F322857   3.325   5.005   2.391
  409DIO     C722858   2.752   4.979   2.448
  409DIO     C822859   2.675   4.866   2.392
  409DIO     C922860   2.530   4.859   2.406
  409DIO    C1022861   2.457   4.969   2.467
  409DIO    C1122862   2.530   5.078   2.530
  409DIO    C1222863   2.674   5.083   2.518
  409DIO     F422864   2.739   5.188   2.573
  409DIO     O122865   2.325   4.945   2.498
  409DIO    C1322866   2.231   5.047   2.490
  409DIO     O222867   2.230   5.159   2.432
  409DIO    C1422868   2.101   5.009   2.548
  409DIO    C1522869   2.035   4.881   2.514
  409DIO     F522870   2.098   4.792   2.434
  409DIO    C1622871   1.904   4.844   2.565
  409DIO    C1722872   1.829   4.937   2.648
  409DIO    C1822873   1.897   5.056   2.697
  409DIO    C1922874   2.029   5.092   2.647
  409DIO     F622875   2.091   5.195   2.708
  409DIO    C2022876   1.688   4.905   2.693
  409DIO     O322877   1.618   4.816   2.605
  409DIO    C2122878   1.574   4.880   2.485
  409DIO    C2222879   1.486   5.000   2.517
  409DIO    C2322880   1.566   5.092   2.608
  409DIO     O422881   1.611   5.022   2.724
  409DIO    C2422882   1.353   4.961   2.585
  409DIO    C2522883   1.262   4.866   2.506
  409DIO    C2622884   1.224   4.918   2.368
  409DIO     H122885   2.944   5.025   2.649
  409DIO     H222886   2.903   4.962   2.213
  409DIO     H322887   2.726   4.784   2.344
  409DIO     H422888   2.475   4.772   2.372
  409DIO     H522889   2.475   5.157   2.580
  409DIO     H622890   1.866   4.745   2.543
  409DIO     H722891   1.854   5.117   2.776
  409DIO     H822892   1.698   4.851   2.787
  409DIO     H922893   1.661   4.911   2.426
  409DIO    H1022894   1.522   4.806   2.425
  409DIO    H1122895   1.463   5.054   2.424
  409DIO    H1222896   1.505   5.176   2.642
  409DIO    H1322897   1.652   5.134   2.555
  409DIO    H1422898   1.373   4.915   2.683
  409DIO    H1522899   1.296   5.053   2.606
  409DIO    H1622900   1.309   4.768   2.496
  409DIO    H1722901   1.170   4.850   2.564
  409DIO    H1822902   1.180   5.018   2.375
  409DIO    H1922903   1.310   4.923   2.301
  409DIO    H2022904   1.150   4.852   2.322
  410DIO     F122905   2.648   1.938   7.216
  410DIO     C122906   2.571   1.829   7.204
  410DIO     C222907   2.426   1.842   7.214
  410DIO     C322908   2.338   1.724   7.204
  410DIO     C422909   2.403   1.593   7.181
  410DIO     C522910   2.547   1.582   7.171
  410DIO     F222911   2.603   1.462   7.146
  410DIO     C622912   2.631   1.699   7.182
  410DIO     F322913   2.765   1.688   7.174
  410DIO     C722914   2.191   1.736   7.215
  410DIO     C822915   2.114   1.649   7.307
  410DIO     C922916   1.969   1.660   7.318
  410DIO    C1022917   1.897   1.750   7.230
  410DIO    C1122918   1.969   1.842   7.144
  410DIO    C1222919   2.113   1.833   7.136
  410DIO     F422920   2.178   1.916   7.051
  410DIO     O122921   1.765   1.773   7.262
  410DIO    C1322922   1.670   1.795   7.162
  410DIO     O222923   1.669   1.772   7.039
  410DIO    C1422924   1.541   1.840   7.216
  410DIO    C1522925   1.475   1.770   7.328
  410DIO     F522926   1.537   1.668   7.391
  410DIO    C1622927   1.344   1.808   7.378
  410DIO    C1722928   1.268   1.914   7.313
  410DIO    C1822929   1.337   1.996   7.214
  410DIO    C1922930   1.469   1.958   7.165
  410DIO     F622931   1.531   2.047   7.084
  410DIO    C2022932   1.127   1.948   7.357
  410DIO     O322933   1.058   1.838   7.416
  410DIO    C2122934   1.014   1.742   7.321
  410DIO    C2222935   0.925   1.807   7.215
  410DIO    C2322936   1.006   1.921   7.154
  410DIO     O422937   1.050   2.012   7.254
  410DIO    C2422938   0.792   1.861   7.273
  410DIO    C2522939   0.702   1.758   7.340
  410DIO    C2622940   0.663   1.641   7.250
  410DIO     H122941   2.384   1.941   7.229
  410DIO     H222942   2.343   1.505   7.163
  410DIO     H322943   2.166   1.579   7.372
  410DIO     H422944   1.914   1.603   7.391
  410DIO     H522945   1.915   1.913   7.083
  410DIO     H622946   1.306   1.758   7.466
  410DIO     H722947   1.294   2.089   7.179
  410DIO     H822948   1.137   2.023   7.437
  410DIO     H922949   1.101   1.694   7.274
  410DIO    H1022950   0.961   1.663   7.374
  410DIO    H1122951   0.903   1.734   7.137
  410DIO    H1222952   0.945   1.978   7.083
  410DIO    H1322953   1.092   1.883   7.098
  410DIO    H1422954   0.812   1.941   7.345
  410DIO    H1522955   0.736   1.908   7.191
  410DIO    H1622956   0.749   1.720   7.431
  410DIO    H1722957   0.610   1.809   7.373
  410DIO    H1822958   0.619   1.677   7.156
  410DIO    H1922959   0.750   1.579   7.227
  410DIO    H2022960   0.590   1.578   7.301
  411DIO     F122961   2.854   4.231   5.294
  411DIO     C122962   2.776   4.341   5.287
  411DIO     C222963   2.632   4.326   5.280
  411DIO     C322964   2.543   4.444   5.270
  411DIO     C422965   2.609   4.577   5.272
  411DIO     C522966   2.753   4.589   5.280
  411DIO     F222967   2.808   4.712   5.285
  411DIO     C622968   2.837   4.472   5.288
  411DIO     F322969   2.970   4.485   5.294
  411DIO     C722970   2.397   4.431   5.261
  411DIO     C822971   2.320   4.501   5.156
  411DIO     C922972   2.175   4.489   5.148
  411DIO    C1022973   2.102   4.414   5.249
  411DIO    C1122974   2.175   4.337   5.349
  411DIO    C1222975   2.319   4.348   5.356
  411DIO     F422976   2.384   4.280   5.452
  411DIO     O122977   1.970   4.386   5.221
  411DIO    C1322978   1.876   4.381   5.323
  411DIO     O222979   1.875   4.424   5.441
  411DIO    C1422980   1.747   4.328   5.278
  411DIO    C1522981   1.680   4.379   5.155
  411DIO     F522982   1.743   4.469   5.077
  411DIO    C1622983   1.549   4.333   5.112
  411DIO    C1722984   1.474   4.238   5.194
  411DIO    C1822985   1.542   4.174   5.305
  411DIO    C1922986   1.674   4.219   5.347
  411DIO     F622987   1.737   4.145   5.441
  411DIO    C2022988   1.333   4.198   5.156
  411DIO     O322989   1.263   4.297   5.079
  411DIO    C2122990   1.220   4.407   5.158
  411DIO    C2222991   1.131   4.360   5.273
  411DIO    C2322992   1.211   4.258   5.352
  411DIO     O422993   1.256   4.152   5.268
  411DIO    C2422994   0.998   4.298   5.225
  411DIO    C2522995   0.907   4.389   5.142
  411DIO    C2622996   0.869   4.518   5.211
  411DIO     H122997   2.589   4.226   5.281
  411DIO     H222998   2.548   4.667   5.275
  411DIO     H322999   2.371   4.560   5.081
  411DIO     H423000   2.120   4.534   5.066
  411DIO     H523001   2.120   4.277   5.420
  411DIO     H623002   1.511   4.368   5.017
  411DIO     H723003   1.500   4.088   5.355
  411DIO     H823004   1.343   4.112   5.090
  411DIO     H923005   1.306   4.462   5.197
  411DIO    H1023006   1.167   4.477   5.092
  411DIO    H1123007   1.108   4.445   5.339
  411DIO    H1223008   1.150   4.213   5.432
  411DIO    H1323009   1.298   4.305   5.401
  411DIO    H1423010   1.018   4.207   5.167
  411DIO    H1523011   0.941   4.265   5.313
  411DIO    H1623012   0.955   4.412   5.045
  411DIO    H1723013   0.815   4.333   5.118
  411DIO    H1823014   0.825   4.499   5.310
  411DIO    H1923015   0.955   4.584   5.225
  411DIO    H2023016   0.795   4.573   5.152
  412DIO     F123017   2.865   3.131   4.934
  412DIO     C123018   2.788   3.039   4.874
  412DIO     C223019   2.644   3.047   4.889
  412DIO     C323020   2.555   2.947   4.826
  412DIO     C423021   2.620   2.841   4.745
  412DIO     C523022   2.765   2.836   4.731
  412DIO     F223023   2.820   2.741   4.653
  412DIO     C623024   2.848   2.935   4.795
  412DIO     F323025   2.982   2.928   4.782
  412DIO     C723026   2.408   2.952   4.841
  412DIO     C823027   2.331   2.833   4.882
  412DIO     C923028   2.187   2.837   4.897
  412DIO    C1023029   2.114   2.958   4.861
  412DIO    C1123030   2.186   3.079   4.827
  412DIO    C1223031   2.331   3.075   4.815
  412DIO     F423032   2.395   3.187   4.778
  412DIO     O123033   1.982   2.963   4.899
  412DIO    C1323034   1.887   3.029   4.821
  412DIO     O223035   1.886   3.066   4.701
  412DIO    C1423036   1.758   3.044   4.889
  412DIO    C1523037   1.692   2.930   4.956
  412DIO     F523038   1.754   2.811   4.965
  412DIO    C1623039   1.561   2.941   5.018
  412DIO    C1723040   1.485   3.065   5.010
  412DIO    C1823041   1.554   3.183   4.960
  412DIO    C1923042   1.686   3.173   4.899
  412DIO     F623043   1.748   3.288   4.868
  412DIO    C2023044   1.345   3.075   5.064
  412DIO     O323045   1.275   2.950   5.066
  412DIO    C2123046   1.231   2.909   4.937
  412DIO    C2223047   1.142   3.015   4.873
  412DIO    C2323048   1.223   3.145   4.872
  412DIO     O423049   1.267   3.179   5.003
  412DIO    C2423050   1.009   3.037   4.949
  412DIO    C2523051   0.919   2.914   4.962
  412DIO    C2623052   0.880   2.852   4.828
  412DIO     H123053   2.601   3.127   4.948
  412DIO     H223054   2.560   2.771   4.688
  412DIO     H323055   2.383   2.741   4.907
  412DIO     H423056   2.131   2.753   4.935
  412DIO     H523057   2.132   3.170   4.805
  412DIO     H623058   1.523   2.856   5.074
  412DIO     H723059   1.511   3.282   4.971
  412DIO     H823060   1.354   3.104   5.169
  412DIO     H923061   1.318   2.888   4.874
  412DIO    H1023062   1.178   2.814   4.948
  412DIO    H1123063   1.120   2.987   4.770
  412DIO    H1223064   1.162   3.228   4.835
  412DIO    H1323065   1.309   3.137   4.804
  412DIO    H1423066   1.029   3.074   5.051
  412DIO    H1523067   0.953   3.116   4.898
  412DIO    H1623068   0.966   2.838   5.025
  412DIO    H1723069   0.827   2.944   5.014
  412DIO    H1823070   0.836   2.927   4.761
  412DIO    H1923071   0.967   2.807   4.778
  412DIO    H2023072   0.807   2.773   4.843
  413DIO     F123073   4.343   3.625   1.052
  413DIO     C123074   4.266   3.666   0.950
  413DIO     C223075   4.122   3.653   0.960
  413DIO     C323076   4.033   3.694   0.849
  413DIO     C423077   4.098   3.753   0.730
  413DIO     C523078   4.243   3.765   0.722
  413DIO     F223079   4.298   3.822   0.613
  413DIO     C623080   4.326   3.722   0.831
  413DIO     F323081   4.460   3.733   0.822
  413DIO     C723082   3.887   3.681   0.857
  413DIO     C823083   3.809   3.616   0.749
  413DIO     C923084   3.665   3.603   0.756
  413DIO    C1023085   3.592   3.662   0.867
  413DIO    C1123086   3.665   3.720   0.979
  413DIO    C1223087   3.809   3.730   0.973
  413DIO     F423088   3.874   3.789   1.075
  413DIO     O123089   3.460   3.625   0.880
  413DIO    C1323090   3.365   3.715   0.929
  413DIO     O223091   3.365   3.841   0.940
  413DIO    C1423092   3.236   3.652   0.957
  413DIO    C1523093   3.170   3.563   0.859
  413DIO     F523094   3.233   3.531   0.744
  413DIO    C1623095   3.039   3.504   0.882
  413DIO    C1723096   2.963   3.537   1.002
  413DIO    C1823097   3.032   3.611   1.108
  413DIO    C1923098   3.164   3.668   1.085
  413DIO     F623099   3.226   3.722   1.192
  413DIO    C2023100   2.823   3.487   1.023
  413DIO     O323101   2.753   3.459   0.901
  413DIO    C2123102   2.709   3.578   0.835
  413DIO    C2223103   2.620   3.661   0.926
  413DIO    C2323104   2.701   3.689   1.053
  413DIO     O423105   2.745   3.567   1.112
  413DIO    C2423106   2.488   3.591   0.962
  413DIO    C2523107   2.397   3.555   0.844
  413DIO    C2623108   2.359   3.673   0.757
  413DIO     H123109   4.079   3.611   1.051
  413DIO     H223110   4.038   3.794   0.650
  413DIO     H323111   3.861   3.573   0.664
  413DIO     H423112   3.610   3.548   0.681
  413DIO     H523113   3.610   3.759   1.064
  413DIO     H623114   3.001   3.433   0.810
  413DIO     H723115   2.989   3.619   1.207
  413DIO     H823116   2.832   3.389   1.073
  413DIO     H923117   2.796   3.636   0.801
  413DIO    H1023118   2.657   3.548   0.744
  413DIO    H1123119   2.598   3.757   0.877
  413DIO    H1223120   2.640   3.742   1.127
  413DIO    H1323121   2.787   3.753   1.031
  413DIO    H1423122   2.508   3.500   1.019
  413DIO    H1523123   2.431   3.657   1.029
  413DIO    H1623124   2.444   3.477   0.783
  413DIO    H1723125   2.305   3.509   0.884
  413DIO    H1823126   2.315   3.753   0.817
  413DIO    H1923127   2.445   3.713   0.703
  413DIO    H2023128   2.285   3.642   0.682
  414DIO     F123129   3.130   3.018   6.853
  414DIO     C123130   3.052   2.974   6.954
  414DIO     C223131   2.908   2.988   6.944
  414DIO     C323132   2.819   2.944   7.053
  414DIO     C423133   2.885   2.883   7.172
  414DIO     C523134   3.029   2.871   7.179
  414DIO     F223135   3.085   2.812   7.287
  414DIO     C623136   3.113   2.916   7.071
  414DIO     F323137   3.247   2.904   7.079
  414DIO     C723138   2.673   2.958   7.046
  414DIO     C823139   2.596   3.020   7.156
  414DIO     C923140   2.451   3.033   7.148
  414DIO    C1023141   2.379   2.976   7.036
  414DIO    C1123142   2.451   2.921   6.923
  414DIO    C1223143   2.595   2.910   6.930
  414DIO     F423144   2.660   2.854   6.826
  414DIO     O123145   2.246   3.014   7.024
  414DIO    C1323146   2.152   2.925   6.973
  414DIO     O223147   2.151   2.800   6.959
  414DIO    C1423148   2.023   2.989   6.946
  414DIO    C1523149   1.956   3.076   7.046
  414DIO     F523150   2.019   3.105   7.162
  414DIO    C1623151   1.826   3.135   7.025
  414DIO    C1723152   1.750   3.104   6.904
  414DIO    C1823153   1.819   3.033   6.797
  414DIO    C1923154   1.950   2.975   6.818
  414DIO     F623155   2.013   2.924   6.710
  414DIO    C2023156   1.609   3.155   6.884
  414DIO     O323157   1.539   3.180   7.007
  414DIO    C2123158   1.496   3.061   7.071
  414DIO    C2223159   1.407   2.979   6.978
  414DIO    C2323160   1.488   2.953   6.850
  414DIO     O423161   1.532   3.076   6.793
  414DIO    C2423162   1.274   3.049   6.943
  414DIO    C2523163   1.183   3.084   7.061
  414DIO    C2623164   1.145   2.964   7.146
  414DIO     H123165   2.866   3.032   6.854
  414DIO     H223166   2.824   2.840   7.251
  414DIO     H323167   2.647   3.062   7.241
  414DIO     H423168   2.396   3.087   7.225
  414DIO     H523169   2.397   2.884   6.838
  414DIO     H623170   1.788   3.204   7.098
  414DIO     H723171   1.776   3.027   6.697
  414DIO     H823172   1.619   3.254   6.837
  414DIO     H923173   1.582   3.002   7.103
  414DIO    H1023174   1.443   3.089   7.162
  414DIO    H1123175   1.384   2.882   7.024
  414DIO    H1223176   1.427   2.902   6.775
  414DIO    H1323177   1.574   2.889   6.871
  414DIO    H1423178   1.294   3.142   6.888
  414DIO    H1523179   1.218   2.985   6.874
  414DIO    H1623180   1.231   3.160   7.125
  414DIO    H1723181   1.092   3.130   7.022
  414DIO    H1823182   1.101   2.884   7.085
  414DIO    H1923183   1.232   2.923   7.199
  414DIO    H2023184   1.071   2.993   7.222
  415DIO     F123185   7.183   0.535   8.221
  415DIO     C123186   7.106   0.628   8.162
  415DIO     C223187   6.962   0.611   8.163
  415DIO     C323188   6.873   0.709   8.097
  415DIO     C423189   6.938   0.826   8.034
  415DIO     C523190   7.083   0.841   8.035
  415DIO     F223191   7.138   0.950   7.979
  415DIO     C623192   7.166   0.742   8.099
  415DIO     F323193   7.300   0.756   8.098
  415DIO     C723194   6.727   0.693   8.096
  415DIO     C823195   6.649   0.704   7.970
  415DIO     C923196   6.505   0.689   7.968
  415DIO    C1023197   6.432   0.673   8.093
  415DIO    C1123198   6.505   0.654   8.217
  415DIO    C1223199   6.649   0.667   8.218
  415DIO     F423200   6.714   0.655   8.336
  415DIO     O123201   6.300   0.635   8.082
  415DIO    C1323202   6.205   0.680   8.174
  415DIO     O223203   6.205   0.775   8.256
  415DIO    C1423204   6.076   0.612   8.160
  415DIO    C1523205   6.010   0.597   8.028
  415DIO     F523206   6.073   0.637   7.916
  415DIO    C1623207   5.879   0.536   8.013
  415DIO    C1723208   5.803   0.493   8.130
  415DIO    C1823209   5.872   0.491   8.259
  415DIO    C1923210   6.004   0.550   8.273
  415DIO     F623211   6.066   0.532   8.392
  415DIO    C2023212   5.663   0.439   8.117
  415DIO     O323213   5.593   0.488   8.002
  415DIO    C2123214   5.549   0.623   8.017
  415DIO    C2223215   5.460   0.638   8.140
  415DIO    C2323216   5.541   0.586   8.259
  415DIO     O423217   5.585   0.453   8.237
  415DIO    C2423218   5.328   0.560   8.129
  415DIO    C2523219   5.237   0.598   8.012
  415DIO    C2623220   5.199   0.745   8.010
  415DIO     H123221   6.919   0.524   8.212
  415DIO     H223222   6.878   0.906   7.993
  415DIO     H323223   6.701   0.718   7.876
  415DIO     H423224   6.450   0.688   7.875
  415DIO     H523225   6.450   0.637   8.309
  415DIO     H623226   5.841   0.520   7.913
  415DIO     H723227   5.829   0.440   8.344
  415DIO     H823228   5.672   0.331   8.101
  415DIO     H923229   5.636   0.689   8.024
  415DIO    H1023230   5.497   0.651   7.926
  415DIO    H1123231   5.438   0.744   8.156
  415DIO    H1223232   5.480   0.586   8.350
  415DIO    H1323233   5.627   0.651   8.279
  415DIO    H1423234   5.348   0.452   8.122
  415DIO    H1523235   5.271   0.574   8.222
  415DIO    H1623236   5.284   0.572   7.917
  415DIO    H1723237   5.145   0.538   8.018
  415DIO    H1823238   5.155   0.776   8.105
  415DIO    H1923239   5.285   0.809   7.989
  415DIO    H2023240   5.125   0.764   7.931
  416DIO     F123241   4.419   0.582   2.383
  416DIO     C123242   4.342   0.604   2.491
  416DIO     C223243   4.197   0.610   2.475
  416DIO     C323244   4.109   0.636   2.590
  416DIO     C423245   4.174   0.653   2.722
  416DIO     C523246   4.318   0.647   2.735
  416DIO     F223247   4.374   0.659   2.858
  416DIO     C623248   4.402   0.622   2.620
  416DIO     F323249   4.536   0.618   2.634
  416DIO     C723250   3.962   0.643   2.576
  416DIO     C823251   3.885   0.756   2.631
  416DIO     C923252   3.740   0.763   2.617
  416DIO    C1023253   3.668   0.653   2.558
  416DIO    C1123254   3.740   0.543   2.496
  416DIO    C1223255   3.884   0.538   2.507
  416DIO     F423256   3.949   0.432   2.454
  416DIO     O123257   3.536   0.676   2.526
  416DIO    C1323258   3.441   0.574   2.535
  416DIO     O223259   3.440   0.463   2.595
  416DIO    C1423260   3.312   0.612   2.477
  416DIO    C1523261   3.246   0.740   2.510
  416DIO     F523262   3.308   0.830   2.588
  416DIO    C1623263   3.115   0.776   2.458
  416DIO    C1723264   3.039   0.682   2.376
  416DIO    C1823265   3.108   0.563   2.328
  416DIO    C1923266   3.240   0.528   2.379
  416DIO     F623267   3.302   0.424   2.319
  416DIO    C2023268   2.898   0.714   2.331
  416DIO     O323269   2.829   0.804   2.418
  416DIO    C2123270   2.785   0.741   2.538
  416DIO    C2223271   2.696   0.621   2.508
  416DIO    C2323272   2.777   0.528   2.417
  416DIO     O423273   2.821   0.597   2.301
  416DIO    C2423274   2.563   0.660   2.439
  416DIO    C2523275   2.473   0.755   2.517
  416DIO    C2623276   2.434   0.704   2.655
  416DIO     H123277   4.155   0.595   2.376
  416DIO     H223278   4.114   0.662   2.812
  416DIO     H323279   3.937   0.839   2.678
  416DIO     H423280   3.685   0.850   2.650
  416DIO     H523281   3.686   0.464   2.447
  416DIO     H623282   3.077   0.875   2.479
  416DIO     H723283   3.065   0.502   2.250
  416DIO     H823284   2.908   0.768   2.236
  416DIO     H923285   2.872   0.711   2.598
  416DIO    H1023286   2.732   0.816   2.598
  416DIO    H1123287   2.674   0.568   2.601
  416DIO    H1223288   2.716   0.443   2.385
  416DIO    H1323289   2.863   0.486   2.471
  416DIO    H1423290   2.583   0.705   2.341
  416DIO    H1523291   2.507   0.568   2.419
  416DIO    H1623292   2.520   0.854   2.526
  416DIO    H1723293   2.381   0.771   2.459
  416DIO    H1823294   2.390   0.604   2.650
  416DIO    H1923295   2.521   0.701   2.722
  416DIO    H2023296   2.361   0.771   2.701
  417DIO     F123297   3.671   0.827   9.745
  417DIO     C123298   3.594   0.723   9.782
  417DIO     C223299   3.450   0.740   9.785
  417DIO     C323300   3.361   0.629   9.827
  417DIO     C423301   3.426   0.501   9.864
  417DIO     C523302   3.571   0.487   9.860
  417DIO     F223303   3.626   0.368   9.889
  417DIO     C623304   3.654   0.597   9.818
  417DIO     F323305   3.788   0.583   9.816
  417DIO     C723306   3.214   0.644   9.832
  417DIO     C823307   3.137   0.606   9.953
  417DIO     C923308   2.993   0.621   9.958
  417DIO    C1023309   2.920   0.664   9.840
  417DIO    C1123310   2.992   0.709   9.722
  417DIO    C1223311   3.137   0.697   9.719
  417DIO     F423312   3.201   0.735   9.607
  417DIO     O123313   2.788   0.698   9.858
  417DIO    C1323314   2.693   0.675   9.759
  417DIO     O223315   2.692   0.600   9.658
  417DIO    C1423316   2.564   0.738   9.788
  417DIO    C1523317   2.498   0.724   9.919
  417DIO     F523318   2.560   0.659  10.020
  417DIO    C1623319   2.367   0.780   9.948
  417DIO    C1723320   2.291   0.848   9.843
  417DIO    C1823321   2.360   0.878   9.718
  417DIO    C1923322   2.492   0.823   9.690
  417DIO     F623323   2.554   0.867   9.579
  417DIO    C2023324   2.151   0.897   9.867
  417DIO     O323325   2.081   0.824   9.969
  417DIO    C2123326   2.037   0.696   9.925
  417DIO    C2223327   1.948   0.709   9.801
  417DIO    C2323328   2.029   0.785   9.696
  417DIO     O423329   2.073   0.910   9.748
  417DIO    C2423330   1.815   0.782   9.829
  417DIO    C2523331   1.725   0.719   9.935
  417DIO    C2623332   1.686   0.575   9.905
  417DIO     H123333   3.407   0.835   9.756
  417DIO     H223334   3.366   0.414   9.886
  417DIO     H323335   3.189   0.572  10.041
  417DIO     H423336   2.937   0.601  10.048
  417DIO     H523337   2.938   0.747   9.637
  417DIO     H623338   2.329   0.774  10.049
  417DIO     H723339   2.317   0.947   9.646
  417DIO     H823340   2.160   0.999   9.907
  417DIO     H923341   2.124   0.633   9.903
  417DIO    H1023342   1.984   0.648  10.007
  417DIO    H1123343   1.926   0.609   9.762
  417DIO    H1223344   1.968   0.805   9.608
  417DIO    H1323345   2.115   0.726   9.663
  417DIO    H1423346   1.835   0.886   9.860
  417DIO    H1523347   1.759   0.789   9.736
  417DIO    H1623348   1.772   0.724  10.034
  417DIO    H1723349   1.633   0.778   9.942
  417DIO    H1823350   1.642   0.566   9.805
  417DIO    H1923351   1.773   0.508   9.911
  417DIO    H2023352   1.613   0.539   9.978
  418DIO     F123353   5.878   1.268   5.733
  418DIO     C123354   5.800   1.161   5.706
  418DIO     C223355   5.656   1.173   5.718
  418DIO     C323356   5.567   1.058   5.690
  418DIO     C423357   5.633   0.932   5.647
  418DIO     C523358   5.777   0.923   5.636
  418DIO     F223359   5.833   0.808   5.593
  418DIO     C623360   5.861   1.037   5.665
  418DIO     F323361   5.995   1.027   5.655
  418DIO     C723362   5.421   1.068   5.703
  418DIO     C823363   5.344   0.968   5.780
  418DIO     C923364   5.199   0.977   5.792
  418DIO    C1023365   5.127   1.080   5.720
  418DIO    C1123366   5.199   1.184   5.648
  418DIO    C1223367   5.343   1.176   5.639
  418DIO     F423368   5.408   1.270   5.568
  418DIO     O123369   4.994   1.097   5.755
  418DIO    C1323370   4.900   1.134   5.659
  418DIO     O223371   4.899   1.130   5.533
  418DIO    C1423372   4.771   1.171   5.719
  418DIO    C1523373   4.705   1.084   5.819
  418DIO     F523374   4.767   0.974   5.866
  418DIO    C1623375   4.574   1.115   5.874
  418DIO    C1723376   4.498   1.230   5.826
  418DIO    C1823377   4.567   1.325   5.740
  418DIO    C1923378   4.698   1.295   5.687
  418DIO     F623379   4.761   1.395   5.620
  418DIO    C2023380   4.357   1.256   5.874
  418DIO     O323381   4.288   1.139   5.917
  418DIO    C2123382   4.244   1.058   5.808
  418DIO    C2223383   4.155   1.138   5.713
  418DIO    C2323384   4.236   1.260   5.670
  418DIO     O423385   4.280   1.335   5.783
  418DIO    C2423386   4.022   1.183   5.778
  418DIO    C2523387   3.932   1.071   5.829
  418DIO    C2623388   3.893   0.969   5.723
  418DIO     H123389   5.614   1.268   5.747
  418DIO     H223390   5.572   0.848   5.616
  418DIO     H323391   5.395   0.890   5.834
  418DIO     H423392   5.144   0.910   5.856
  418DIO     H523393   5.145   1.263   5.599
  418DIO     H623394   4.536   1.052   5.954
  418DIO     H723395   4.524   1.422   5.720
  418DIO     H823396   4.367   1.318   5.964
  418DIO     H923397   4.331   1.018   5.754
  418DIO    H1023398   4.191   0.972   5.849
  418DIO    H1123399   4.132   1.078   5.625
  418DIO    H1223400   4.175   1.327   5.608
  418DIO    H1323401   4.322   1.231   5.609
  418DIO    H1423402   4.042   1.251   5.862
  418DIO    H1523403   3.966   1.241   5.704
  418DIO    H1623404   3.979   1.019   5.914
  418DIO    H1723405   3.840   1.116   5.869
  418DIO    H1823406   3.849   1.018   5.636
  418DIO    H1923407   3.980   0.911   5.690
  418DIO    H2023408   3.819   0.899   5.763
  419DIO     F123409   3.616   4.417   9.883
  419DIO     C123410   3.538   4.517   9.838
  419DIO     C223411   3.394   4.500   9.836
  419DIO     C323412   3.305   4.607   9.785
  419DIO     C423413   3.371   4.731   9.738
  419DIO     C523414   3.515   4.745   9.741
  419DIO     F223415   3.570   4.862   9.702
  419DIO     C623416   3.599   4.639   9.791
  419DIO     F323417   3.733   4.653   9.792
  419DIO     C723418   3.159   4.591   9.781
  419DIO     C823419   3.082   4.619   9.658
  419DIO     C923420   2.937   4.604   9.654
  419DIO    C1023421   2.864   4.571   9.775
  419DIO    C1123422   2.937   4.535   9.896
  419DIO    C1223423   3.081   4.548   9.899
  419DIO     F423424   3.146   4.519  10.013
  419DIO     O123425   2.732   4.535   9.759
  419DIO    C1323426   2.638   4.567   9.857
  419DIO     O223427   2.637   4.650   9.951
  419DIO    C1423428   2.509   4.501   9.833
  419DIO    C1523429   2.442   4.505   9.701
  419DIO     F523430   2.505   4.561   9.595
  419DIO    C1623431   2.312   4.446   9.677
  419DIO    C1723432   2.236   4.387   9.787
  419DIO    C1823433   2.305   4.368   9.914
  419DIO    C1923434   2.436   4.425   9.937
  419DIO     F623435   2.499   4.390  10.052
  419DIO    C2023436   2.095   4.336   9.767
  419DIO     O323437   2.025   4.401   9.660
  419DIO    C2123438   1.982   4.532   9.693
  419DIO    C2223439   1.893   4.530   9.817
  419DIO    C2323440   1.974   4.462   9.928
  419DIO     O423441   2.018   4.333   9.887
  419DIO    C2423442   1.760   4.454   9.795
  419DIO    C2523443   1.669   4.509   9.685
  419DIO    C2623444   1.631   4.655   9.703
  419DIO     H123445   3.351   4.407   9.873
  419DIO     H223446   3.310   4.816   9.709
  419DIO     H323447   3.133   4.646   9.567
  419DIO     H423448   2.882   4.617   9.562
  419DIO     H523449   2.883   4.505   9.985
  419DIO     H623450   2.273   4.445   9.576
  419DIO     H723451   2.262   4.305   9.992
  419DIO     H823452   2.105   4.232   9.736
  419DIO     H923453   2.068   4.597   9.709
  419DIO    H1023454   1.929   4.573   9.607
  419DIO    H1123455   1.870   4.633   9.848
  419DIO    H1223456   1.912   4.450  10.018
  419DIO    H1323457   2.060   4.524   9.957
  419DIO    H1423458   1.780   4.348   9.773
  419DIO    H1523459   1.704   4.455   9.889
  419DIO    H1623460   1.717   4.495   9.587
  419DIO    H1723461   1.578   4.449   9.682
  419DIO    H1823462   1.587   4.672   9.802
  419DIO    H1923463   1.717   4.721   9.692
  419DIO    H2023464   1.557   4.684   9.627
  420DIO     F123465   9.930   5.116   9.257
  420DIO     C123466   9.853   5.048   9.170
  420DIO     C223467   9.709   5.051   9.187
  420DIO     C323468   9.620   4.975   9.096
  420DIO     C423469   9.685   4.900   8.986
  420DIO     C523470   9.830   4.899   8.972
  420DIO     F223471   9.885   4.833   8.868
  420DIO     C623472   9.913   4.973   9.063
  420DIO     F323473  10.047   4.971   9.049
  420DIO     C723474   9.474   4.975   9.112
  420DIO     C823475   9.396   4.849   9.114
  420DIO     C923476   9.252   4.849   9.130
  420DIO    C1023477   9.179   4.975   9.133
  420DIO    C1123478   9.252   5.100   9.138
  420DIO    C1223479   9.396   5.100   9.126
  420DIO     F423480   9.461   5.218   9.126
  420DIO     O123481   9.047   4.968   9.171
  420DIO    C1323482   8.952   5.055   9.117
  420DIO     O223483   8.952   5.127   9.014
  420DIO    C1423484   8.823   5.048   9.187
  420DIO    C1523485   8.757   4.918   9.215
  420DIO     F523486   8.820   4.802   9.186
  420DIO    C1623487   8.626   4.910   9.277
  420DIO    C1723488   8.550   5.030   9.308
  420DIO    C1823489   8.619   5.158   9.297
  420DIO    C1923490   8.751   5.167   9.236
  420DIO     F623491   8.813   5.286   9.242
  420DIO    C2023492   8.410   5.023   9.362
  420DIO     O323493   8.340   4.903   9.326
  420DIO    C2123494   8.296   4.904   9.190
  420DIO    C2223495   8.207   5.025   9.163
  420DIO    C2323496   8.288   5.149   9.201
  420DIO     O423497   8.332   5.141   9.336
  420DIO    C2423498   8.075   5.022   9.242
  420DIO    C2523499   7.984   4.901   9.215
  420DIO    C2623500   7.946   4.884   9.069
  420DIO     H123501   9.666   5.109   9.268
  420DIO     H223502   9.625   4.851   8.911
  420DIO     H323503   9.448   4.754   9.110
  420DIO     H423504   9.197   4.757   9.140
  420DIO     H523505   9.197   5.193   9.146
  420DIO     H623506   8.588   4.812   9.304
  420DIO     H723507   8.576   5.249   9.339
  420DIO     H823508   8.419   5.018   9.472
  420DIO     H923509   8.383   4.904   9.123
  420DIO    H1023510   8.244   4.811   9.171
  420DIO    H1123511   8.185   5.030   9.056
  420DIO    H1223512   8.227   5.239   9.192
  420DIO    H1323513   8.374   5.162   9.135
  420DIO    H1423514   8.095   5.026   9.349
  420DIO    H1523515   8.018   5.113   9.218
  420DIO    H1623516   8.031   4.810   9.252
  420DIO    H1723517   7.892   4.914   9.274
  420DIO    H1823518   7.902   4.976   9.029
  420DIO    H1923519   8.032   4.857   9.008
  420DIO    H2023520   7.872   4.804   9.059
  421DIO     F123521   4.590   6.102   6.557
  421DIO     C123522   4.513   6.064   6.453
  421DIO     C223523   4.369   6.061   6.470
  421DIO     C323524   4.280   6.019   6.360
  421DIO     C423525   4.345   5.983   6.232
  421DIO     C523526   4.490   5.987   6.218
  421DIO     F223527   4.545   5.957   6.098
  421DIO     C623528   4.573   6.028   6.328
  421DIO     F323529   4.707   6.030   6.314
  421DIO     C723530   4.134   6.014   6.375
  421DIO     C823531   4.056   5.893   6.337
  421DIO     C923532   3.912   5.889   6.351
  421DIO    C1023533   3.839   6.007   6.394
  421DIO    C1123534   3.912   6.124   6.440
  421DIO    C1223535   4.056   6.128   6.428
  421DIO     F423536   4.121   6.240   6.465
  421DIO     O123537   3.707   5.988   6.429
  421DIO    C1323538   3.612   6.087   6.405
  421DIO     O223539   3.612   6.189   6.330
  421DIO    C1423540   3.483   6.059   6.469
  421DIO    C1523541   3.417   5.927   6.454
  421DIO     F523542   3.480   5.827   6.390
  421DIO    C1623543   3.286   5.899   6.511
  421DIO    C1723544   3.210   6.004   6.578
  421DIO    C1823545   3.279   6.129   6.608
  421DIO    C1923546   3.411   6.156   6.553
  421DIO     F623547   3.473   6.267   6.597
  421DIO    C2023548   3.070   5.979   6.627
  421DIO     O323549   3.000   5.878   6.554
  421DIO    C2123550   2.956   5.922   6.426
  421DIO    C2223551   2.867   6.045   6.439
  421DIO    C2323552   2.948   6.150   6.515
  421DIO     O423553   2.992   6.099   6.640
  421DIO    C2423554   2.735   6.017   6.513
  421DIO    C2523555   2.644   5.911   6.449
  421DIO    C2623556   2.606   5.941   6.305
  421DIO     H123557   4.326   6.091   6.565
  421DIO     H223558   4.285   5.960   6.144
  421DIO     H323559   4.108   5.805   6.302
  421DIO     H423560   3.857   5.798   6.331
  421DIO     H523561   3.857   6.210   6.477
  421DIO     H623562   3.248   5.798   6.504
  421DIO     H723563   3.236   6.201   6.677
  421DIO     H823564   3.079   5.940   6.729
  421DIO     H923565   3.043   5.943   6.363
  421DIO    H1023566   2.904   5.839   6.379
  421DIO    H1123567   2.845   6.084   6.339
  421DIO    H1223568   2.887   6.239   6.535
  421DIO    H1323569   3.034   6.184   6.456
  421DIO    H1423570   2.755   5.987   6.616
  421DIO    H1523571   2.678   6.111   6.519
  421DIO    H1623572   2.691   5.812   6.454
  421DIO    H1723573   2.552   5.904   6.509
  421DIO    H1823574   2.562   6.041   6.296
  421DIO    H1923575   2.692   5.935   6.238
  421DIO    H2023576   2.532   5.869   6.270
  422DIO     F123577   4.300   8.205   0.237
  422DIO     C123578   4.223   8.096   0.220
  422DIO     C223579   4.078   8.109   0.231
  422DIO     C323580   3.990   7.992   0.214
  422DIO     C423581   4.055   7.863   0.185
  422DIO     C523582   4.199   7.852   0.174
  422DIO     F223583   4.255   7.734   0.143
  422DIO     C623584   4.283   7.969   0.191
  422DIO     F323585   4.417   7.957   0.183
  422DIO     C723586   3.843   8.003   0.226
  422DIO     C823587   3.766   7.912   0.313
  422DIO     C923588   3.621   7.922   0.324
  422DIO    C1023589   3.549   8.017   0.242
  422DIO    C1123590   3.621   8.113   0.161
  422DIO    C1223591   3.765   8.104   0.152
  422DIO     F423592   3.830   8.191   0.072
  422DIO     O123593   3.417   8.038   0.275
  422DIO    C1323594   3.322   8.065   0.176
  422DIO     O223595   3.321   8.048   0.052
  422DIO    C1423596   3.193   8.107   0.232
  422DIO    C1523597   3.127   8.031   0.341
  422DIO     F523598   3.189   7.926   0.398
  422DIO    C1623599   2.996   8.067   0.392
  422DIO    C1723600   2.920   8.176   0.333
  422DIO    C1823601   2.989   8.263   0.238
  422DIO    C1923602   3.121   8.228   0.188
  422DIO     F623603   3.183   8.320   0.111
  422DIO    C2023604   2.779   8.208   0.378
  422DIO     O323605   2.710   8.095   0.432
  422DIO    C2123606   2.666   8.004   0.332
  422DIO    C2223607   2.577   8.074   0.230
  422DIO    C2323608   2.658   8.192   0.174
  422DIO     O423609   2.702   8.277   0.280
  422DIO    C2423610   2.444   8.125   0.290
  422DIO    C2523611   2.354   8.019   0.352
  422DIO    C2623612   2.315   7.907   0.256
  422DIO     H123613   4.036   8.207   0.251
  422DIO     H223614   3.995   7.775   0.162
  422DIO     H323615   3.818   7.839   0.374
  422DIO     H423616   3.566   7.861   0.394
  422DIO     H523617   3.567   8.187   0.104
  422DIO     H623618   2.958   8.012   0.478
  422DIO     H723619   2.946   8.358   0.208
  422DIO     H823620   2.789   8.278   0.462
  422DIO     H923621   2.753   7.959   0.283
  422DIO    H1023622   2.613   7.922   0.381
  422DIO    H1123623   2.555   8.005   0.148
  422DIO    H1223624   2.597   8.252   0.106
  422DIO    H1323625   2.744   8.156   0.117
  422DIO    H1423626   2.464   8.201   0.366
  422DIO    H1523627   2.388   8.176   0.211
  422DIO    H1623628   2.401   7.976   0.441
  422DIO    H1723629   2.262   8.068   0.387
  422DIO    H1823630   2.271   7.947   0.164
  422DIO    H1923631   2.402   7.846   0.229
  422DIO    H2023632   2.242   7.841   0.303
  423DIO     F123633   4.779   3.334   3.799
  423DIO     C123634   4.702   3.439   3.766
  423DIO     C223635   4.558   3.423   3.763
  423DIO     C323636   4.469   3.535   3.725
  423DIO     C423637   4.534   3.664   3.694
  423DIO     C523638   4.679   3.678   3.699
  423DIO     F223639   4.734   3.799   3.674
  423DIO     C623640   4.762   3.567   3.735
  423DIO     F323641   4.896   3.580   3.738
  423DIO     C723642   4.322   3.520   3.719
  423DIO     C823643   4.245   3.563   3.601
  423DIO     C923644   4.101   3.549   3.595
  423DIO    C1023645   4.028   3.501   3.711
  423DIO    C1123646   4.101   3.451   3.827
  423DIO    C1223647   4.245   3.463   3.831
  423DIO     F423648   4.310   3.420   3.941
  423DIO     O123649   3.896   3.467   3.691
  423DIO    C1323650   3.801   3.487   3.791
  423DIO     O223651   3.800   3.557   3.896
  423DIO    C1423652   3.672   3.424   3.760
  423DIO    C1523653   3.606   3.444   3.629
  423DIO     F523654   3.669   3.513   3.531
  423DIO    C1623655   3.475   3.389   3.599
  423DIO    C1723656   3.399   3.317   3.700
  423DIO    C1823657   3.468   3.282   3.824
  423DIO    C1923658   3.600   3.336   3.854
  423DIO     F623659   3.662   3.287   3.963
  423DIO    C2023660   3.259   3.269   3.674
  423DIO     O323661   3.189   3.346   3.575
  423DIO    C2123662   3.145   3.472   3.625
  423DIO    C2223663   3.056   3.455   3.748
  423DIO    C2323664   3.137   3.374   3.849
  423DIO     O423665   3.181   3.251   3.793
  423DIO    C2423666   2.924   3.382   3.716
  423DIO    C2523667   2.833   3.450   3.613
  423DIO    C2623668   2.794   3.593   3.650
  423DIO     H123669   4.515   3.326   3.788
  423DIO     H223670   4.474   3.753   3.676
  423DIO     H323671   4.297   3.602   3.514
  423DIO     H423672   4.046   3.573   3.505
  423DIO     H523673   4.046   3.410   3.911
  423DIO     H623674   3.437   3.400   3.498
  423DIO     H723675   3.425   3.210   3.893
  423DIO     H823676   3.268   3.169   3.630
  423DIO     H923677   3.232   3.535   3.649
  423DIO    H1023678   3.092   3.524   3.544
  423DIO    H1123679   3.034   3.553   3.791
  423DIO    H1223680   3.076   3.350   3.937
  423DIO    H1323681   3.223   3.432   3.885
  423DIO    H1423682   2.943   3.280   3.682
  423DIO    H1523683   2.867   3.372   3.810
  423DIO    H1623684   2.880   3.449   3.515
  423DIO    H1723685   2.741   3.391   3.604
  423DIO    H1823686   2.751   3.598   3.750
  423DIO    H1923687   2.881   3.660   3.647
  423DIO    H2023688   2.721   3.631   3.579
  424DIO     F123689   4.661   6.030   2.917
  424DIO     C123690   4.583   6.028   3.027
  424DIO     C223691   4.439   6.037   3.013
  424DIO     C323692   4.351   6.038   3.131
  424DIO     C423693   4.416   6.027   3.264
  424DIO     C523694   4.560   6.018   3.275
  424DIO     F223695   4.616   6.004   3.397
  424DIO     C623696   4.644   6.018   3.158
  424DIO     F323697   4.778   6.011   3.170
  424DIO     C723698   4.204   6.048   3.119
  424DIO     C823699   4.127   6.147   3.197
  424DIO     C923700   3.982   6.157   3.185
  424DIO    C1023701   3.910   6.062   3.103
  424DIO    C1123702   3.982   5.968   3.019
  424DIO    C1223703   4.126   5.960   3.029
  424DIO     F423704   4.191   5.868   2.954
  424DIO     O123705   3.778   6.091   3.077
  424DIO    C1323706   3.683   5.990   3.064
  424DIO     O223707   3.682   5.869   3.099
  424DIO    C1423708   3.554   6.039   3.015
  424DIO    C1523709   3.488   6.157   3.075
  424DIO     F523710   3.550   6.229   3.171
  424DIO    C1623711   3.357   6.204   3.032
  424DIO    C1723712   3.281   6.129   2.932
  424DIO    C1823713   3.350   6.023   2.860
  424DIO    C1923714   3.481   5.978   2.901
  424DIO     F623715   3.544   5.889   2.821
  424DIO    C2023716   3.140   6.170   2.895
  424DIO     O323717   3.071   6.239   2.999
  424DIO    C2123718   3.027   6.152   3.103
  424DIO    C2223719   2.938   6.041   3.048
  424DIO    C2323720   3.019   5.970   2.939
  424DIO     O423721   3.063   6.062   2.840
  424DIO    C2423722   2.805   6.094   2.989
  424DIO    C2523723   2.715   6.170   3.085
  424DIO    C2623724   2.676   6.091   3.209
  424DIO     H123725   4.397   6.044   2.913
  424DIO     H223726   4.355   6.017   3.353
  424DIO     H323727   4.179   6.218   3.260
  424DIO     H423728   3.927   6.235   3.236
  424DIO     H523729   3.928   5.901   2.954
  424DIO     H623730   3.319   6.296   3.074
  424DIO     H723731   3.307   5.980   2.770
  424DIO     H823732   3.150   6.243   2.813
  424DIO     H923733   3.114   6.110   3.155
  424DIO    H1023734   2.974   6.213   3.177
  424DIO    H1123735   2.916   5.970   3.128
  424DIO    H1223736   2.958   5.894   2.889
  424DIO    H1323737   3.105   5.918   2.983
  424DIO    H1423738   2.825   6.159   2.902
  424DIO    H1523739   2.749   6.008   2.950
  424DIO    H1623740   2.762   6.265   3.115
  424DIO    H1723741   2.623   6.198   3.032
  424DIO    H1823742   2.632   5.995   3.183
  424DIO    H1923743   2.763   6.073   3.274
  424DIO    H2023744   2.603   6.147   3.268
  425DIO     F123745   7.300   4.384   6.285
  425DIO     C123746   7.222   4.407   6.393
  425DIO     C223747   7.078   4.413   6.377
  425DIO     C323748   6.989   4.440   6.492
  425DIO     C423749   7.055   4.459   6.623
  425DIO     C523750   7.199   4.453   6.637
  425DIO     F223751   7.255   4.467   6.759
  425DIO     C623752   7.283   4.427   6.522
  425DIO     F323753   7.417   4.423   6.536
  425DIO     C723754   6.843   4.447   6.477
  425DIO     C823755   6.766   4.561   6.531
  425DIO     C923756   6.621   4.568   6.517
  425DIO    C1023757   6.549   4.457   6.459
  425DIO    C1123758   6.621   4.346   6.399
  425DIO    C1223759   6.765   4.341   6.410
  425DIO     F423760   6.830   4.235   6.358
  425DIO     O123761   6.416   4.480   6.428
  425DIO    C1323762   6.322   4.378   6.438
  425DIO     O223763   6.321   4.268   6.499
  425DIO    C1423764   6.193   4.415   6.378
  425DIO    C1523765   6.126   4.544   6.410
  425DIO     F523766   6.189   4.635   6.487
  425DIO    C1623767   5.996   4.579   6.358
  425DIO    C1723768   5.920   4.484   6.277
  425DIO    C1823769   5.989   4.364   6.231
  425DIO    C1923770   6.120   4.330   6.282
  425DIO     F623771   6.183   4.225   6.224
  425DIO    C2023772   5.779   4.515   6.232
  425DIO     O323773   5.709   4.606   6.317
  425DIO    C2123774   5.666   4.545   6.438
  425DIO    C2223775   5.577   4.424   6.410
  425DIO    C2323776   5.658   4.330   6.321
  425DIO     O423777   5.702   4.398   6.203
  425DIO    C2423778   5.444   4.462   6.340
  425DIO    C2523779   5.353   4.559   6.417
  425DIO    C2623780   5.315   4.510   6.556
  425DIO     H123781   7.036   4.396   6.278
  425DIO     H223782   6.994   4.470   6.713
  425DIO     H323783   6.817   4.645   6.577
  425DIO     H423784   6.566   4.656   6.549
  425DIO     H523785   6.567   4.266   6.351
  425DIO     H623786   5.958   4.678   6.378
  425DIO     H723787   5.946   4.302   6.154
  425DIO     H823788   5.789   4.567   6.136
  425DIO     H923789   5.752   4.516   6.498
  425DIO    H1023790   5.613   4.621   6.497
  425DIO    H1123791   5.554   4.373   6.504
  425DIO    H1223792   5.597   4.245   6.289
  425DIO    H1323793   5.744   4.289   6.375
  425DIO    H1423794   5.464   4.506   6.242
  425DIO    H1523795   5.388   4.370   6.322
  425DIO    H1623796   5.401   4.657   6.425
  425DIO    H1723797   5.262   4.573   6.359
  425DIO    H1823798   5.271   4.410   6.552
  425DIO    H1923799   5.402   4.507   6.623
  425DIO    H2023800   5.241   4.577   6.601
  426DIO     F123801   7.419   1.632   7.674
  426DIO     C123802   7.341   1.649   7.783
  426DIO     C223803   7.197   1.655   7.767
  426DIO     C323804   7.109   1.676   7.884
  426DIO     C423805   7.174   1.688   8.016
  426DIO     C523806   7.318   1.682   8.029
  426DIO     F223807   7.374   1.689   8.152
  426DIO     C623808   7.402   1.662   7.913
  426DIO     F323809   7.536   1.657   7.927
  426DIO     C723810   6.962   1.684   7.870
  426DIO     C823811   6.885   1.795   7.929
  426DIO     C923812   6.740   1.803   7.916
  426DIO    C1023813   6.668   1.695   7.852
  426DIO    C1123814   6.740   1.588   7.785
  426DIO    C1223815   6.884   1.582   7.797
  426DIO     F423816   6.949   1.479   7.739
  426DIO     O123817   6.536   1.720   7.821
  426DIO    C1323818   6.441   1.617   7.826
  426DIO     O223819   6.440   1.504   7.881
  426DIO    C1423820   6.312   1.657   7.769
  426DIO    C1523821   6.246   1.784   7.807
  426DIO     F523822   6.308   1.871   7.889
  426DIO    C1623823   6.115   1.822   7.757
  426DIO    C1723824   6.039   1.732   7.671
  426DIO    C1823825   6.108   1.615   7.619
  426DIO    C1923826   6.239   1.577   7.668
  426DIO     F623827   6.302   1.476   7.604
  426DIO    C2023828   5.898   1.765   7.628
  426DIO     O323829   5.829   1.851   7.718
  426DIO    C2123830   5.785   1.784   7.836
  426DIO    C2223831   5.696   1.665   7.801
  426DIO    C2323832   5.777   1.576   7.707
  426DIO     O423833   5.821   1.650   7.593
  426DIO    C2423834   5.563   1.706   7.734
  426DIO    C2523835   5.473   1.799   7.816
  426DIO    C2623836   5.434   1.742   7.951
  426DIO     H123837   7.155   1.644   7.668
  426DIO     H223838   7.113   1.694   8.106
  426DIO     H323839   6.937   1.876   7.980
  426DIO     H423840   6.685   1.888   7.952
  426DIO     H523841   6.686   1.510   7.733
  426DIO     H623842   6.077   1.920   7.782
  426DIO     H723843   6.065   1.556   7.538
  426DIO     H823844   5.908   1.822   7.535
  426DIO     H923845   5.872   1.752   7.894
  426DIO    H1023846   5.732   1.857   7.898
  426DIO    H1123847   5.674   1.609   7.892
  426DIO    H1223848   5.716   1.493   7.671
  426DIO    H1323849   5.863   1.532   7.758
  426DIO    H1423850   5.583   1.755   7.637
  426DIO    H1523851   5.507   1.615   7.710
  426DIO    H1623852   5.520   1.897   7.829
  426DIO    H1723853   5.381   1.817   7.758
  426DIO    H1823854   5.390   1.643   7.942
  426DIO    H1923855   5.521   1.736   8.018
  426DIO    H2023856   5.361   1.808   8.000
  427DIO     F123857   3.205   4.466   4.470
  427DIO     C123858   3.127   4.439   4.363
  427DIO     C223859   2.983   4.434   4.379
  427DIO     C323860   2.894   4.403   4.265
  427DIO     C423861   2.960   4.380   4.134
  427DIO     C523862   3.104   4.385   4.121
  427DIO     F223863   3.159   4.367   3.999
  427DIO     C623864   3.188   4.415   4.234
  427DIO     F323865   3.322   4.419   4.221
  427DIO     C723866   2.748   4.397   4.280
  427DIO     C823867   2.671   4.281   4.230
  427DIO     C923868   2.526   4.274   4.244
  427DIO    C1023869   2.453   4.388   4.298
  427DIO    C1123870   2.526   4.500   4.355
  427DIO    C1223871   2.670   4.505   4.344
  427DIO     F423872   2.735   4.613   4.392
  427DIO     O123873   2.321   4.366   4.331
  427DIO    C1323874   2.227   4.467   4.317
  427DIO     O223875   2.226   4.575   4.253
  427DIO    C1423876   2.098   4.432   4.378
  427DIO    C1523877   2.031   4.303   4.350
  427DIO     F523878   2.094   4.209   4.276
  427DIO    C1623879   1.901   4.269   4.404
  427DIO    C1723880   1.825   4.366   4.481
  427DIO    C1823881   1.894   4.488   4.524
  427DIO    C1923882   2.025   4.520   4.472
  427DIO     F623883   2.088   4.627   4.526
  427DIO    C2023884   1.684   4.337   4.528
  427DIO     O323885   1.614   4.243   4.445
  427DIO    C2123886   1.571   4.300   4.322
  427DIO    C2223887   1.482   4.421   4.347
  427DIO    C2323888   1.563   4.518   4.433
  427DIO     O423889   1.607   4.455   4.552
  427DIO    C2423890   1.349   4.386   4.417
  427DIO    C2523891   1.258   4.287   4.343
  427DIO    C2623892   1.220   4.331   4.203
  427DIO     H123893   2.940   4.454   4.477
  427DIO     H223894   2.899   4.366   4.045
  427DIO     H323895   2.722   4.196   4.187
  427DIO     H423896   2.471   4.186   4.215
  427DIO     H523897   2.472   4.582   4.401
  427DIO     H623898   1.862   4.169   4.387
  427DIO     H723899   1.851   4.553   4.599
  427DIO     H823900   1.694   4.288   4.625
  427DIO     H923901   1.657   4.327   4.261
  427DIO    H1023902   1.518   4.222   4.266
  427DIO    H1123903   1.459   4.470   4.251
  427DIO    H1223904   1.501   4.605   4.461
  427DIO    H1323905   1.649   4.558   4.377
  427DIO    H1423906   1.369   4.346   4.517
  427DIO    H1523907   1.293   4.479   4.433
  427DIO    H1623908   1.306   4.188   4.339
  427DIO    H1723909   1.167   4.274   4.402
  427DIO    H1823910   1.176   4.432   4.204
  427DIO    H1923911   1.306   4.332   4.136
  427DIO    H2023912   1.146   4.262   4.161
  428DIO     F123913   6.783   9.129   7.222
  428DIO     C123914   6.706   9.043   7.154
  428DIO     C223915   6.562   9.049   7.170
  428DIO     C323916   6.473   8.954   7.098
  428DIO     C423917   6.538   8.856   7.009
  428DIO     C523918   6.683   8.852   6.995
  428DIO     F223919   6.738   8.764   6.909
  428DIO     C623920   6.766   8.945   7.066
  428DIO     F323921   6.900   8.940   7.053
  428DIO     C723922   6.327   8.958   7.114
  428DIO     C823923   6.249   8.836   7.145
  428DIO     C923924   6.105   8.839   7.160
  428DIO    C1023925   6.032   8.962   7.134
  428DIO    C1123926   6.105   9.086   7.110
  428DIO    C1223927   6.249   9.083   7.098
  428DIO     F423928   6.314   9.198   7.071
  428DIO     O123929   5.900   8.965   7.173
  428DIO    C1323930   5.805   9.037   7.101
  428DIO     O223931   5.805   9.083   6.984
  428DIO    C1423932   5.676   9.046   7.170
  428DIO    C1523933   5.610   8.927   7.227
  428DIO     F523934   5.673   8.807   7.225
  428DIO    C1623935   5.479   8.932   7.290
  428DIO    C1723936   5.403   9.057   7.292
  428DIO    C1823937   5.472   9.179   7.251
  428DIO    C1923938   5.604   9.173   7.190
  428DIO     F623939   5.666   9.291   7.169
  428DIO    C2023940   5.263   9.062   7.346
  428DIO     O323941   5.193   8.937   7.338
  428DIO    C2123942   5.149   8.907   7.206
  428DIO    C2223943   5.060   9.019   7.151
  428DIO    C2323944   5.141   9.148   7.161
  428DIO     O423945   5.185   9.171   7.294
  428DIO    C2423946   4.928   9.034   7.229
  428DIO    C2523947   4.837   8.910   7.231
  428DIO    C2623948   4.799   8.860   7.093
  428DIO     H123949   6.519   9.124   7.235
  428DIO     H223950   6.478   8.791   6.946
  428DIO     H323951   6.301   8.742   7.162
  428DIO     H423952   6.050   8.752   7.191
  428DIO     H523953   6.050   9.179   7.097
  428DIO     H623954   5.441   8.843   7.338
  428DIO     H723955   5.429   9.276   7.271
  428DIO     H823956   5.272   9.083   7.454
  428DIO     H923957   5.236   8.892   7.141
  428DIO    H1023958   5.097   8.812   7.209
  428DIO    H1123959   5.038   8.999   7.046
  428DIO    H1223960   5.080   9.234   7.131
  428DIO    H1323961   5.227   9.145   7.093
  428DIO    H1423962   4.948   9.063   7.333
  428DIO    H1523963   4.871   9.117   7.185
  428DIO    H1623964   4.884   8.829   7.288
  428DIO    H1723965   4.745   8.936   7.285
  428DIO    H1823966   4.755   8.940   7.032
  428DIO    H1923967   4.885   8.819   7.039
  428DIO    H2023968   4.725   8.779   7.101
  429DIO     F123969   4.894   0.119   0.339
  429DIO     C123970   4.816   0.228   0.324
  429DIO     C223971   4.672   0.212   0.317
  429DIO     C323972   4.583   0.329   0.298
  429DIO     C423973   4.649   0.461   0.288
  429DIO     C523974   4.793   0.474   0.295
  429DIO     F223975   4.849   0.597   0.289
  429DIO     C623976   4.877   0.358   0.313
  429DIO     F323977   5.011   0.372   0.318
  429DIO     C723978   4.437   0.315   0.290
  429DIO     C823979   4.360   0.376   0.179
  429DIO     C923980   4.215   0.363   0.172
  429DIO    C1023981   4.143   0.297   0.279
  429DIO    C1123982   4.215   0.229   0.385
  429DIO    C1223983   4.359   0.240   0.391
  429DIO     F423984   4.424   0.181   0.493
  429DIO     O123985   4.010   0.268   0.254
  429DIO    C1323986   3.916   0.270   0.356
  429DIO     O223987   3.915   0.324   0.470
  429DIO    C1423988   3.787   0.214   0.315
  429DIO    C1523989   3.720   0.254   0.189
  429DIO     F523990   3.783   0.338   0.103
  429DIO    C1623991   3.590   0.205   0.150
  429DIO    C1723992   3.514   0.118   0.239
  429DIO    C1823993   3.583   0.063   0.355
  429DIO    C1923994   3.714   0.112   0.393
  429DIO     F623995   3.777   0.046   0.493
  429DIO    C2023996   3.373   0.075   0.205
  429DIO     O323997   3.303   0.166   0.120
  429DIO    C2123998   3.260   0.283   0.189
  429DIO    C2223999   3.171   0.246   0.308
  429DIO    C2324000   3.252   0.150   0.395
  429DIO     O424001   3.296   0.038   0.320
  429DIO    C2424002   3.038   0.179   0.265
  429DIO    C2524003   2.947   0.263   0.174
  429DIO    C2624004   2.909   0.398   0.233
  429DIO     H124005   4.630   0.113   0.327
  429DIO     H224006   4.588   0.551   0.284
  429DIO     H324007   4.411   0.428   0.100
  429DIO     H424008   4.160   0.401   0.087
  429DIO     H524009   4.161   0.176   0.461
  429DIO     H624010   3.552   0.232   0.052
  429DIO     H724011   3.540  -0.018   0.412
  429DIO     H824012   3.383  -0.017   0.146
  429DIO     H924013   3.346   0.341   0.223
  429DIO    H1024014   3.207   0.346   0.118
  429DIO    H1124015   3.148   0.336   0.366
  429DIO    H1224016   3.191   0.113   0.478
  429DIO    H1324017   3.338   0.201   0.440
  429DIO    H1424018   3.058   0.084   0.215
  429DIO    H1524019   2.982   0.154   0.356
  429DIO    H1624020   2.995   0.278   0.076
  429DIO    H1724021   2.856   0.206   0.155
  429DIO    H1824022   2.865   0.387   0.332
  429DIO    H1924023   2.996   0.464   0.240
  429DIO    H2024024   2.835   0.447   0.168
  430DIO     F124025   6.875   3.193   2.827
  430DIO     C124026   6.797   3.236   2.928
  430DIO     C224027   6.653   3.239   2.911
  430DIO     C324028   6.565   3.288   3.019
  430DIO     C424029   6.630   3.332   3.144
  430DIO     C524030   6.774   3.328   3.159
  430DIO     F224031   6.830   3.365   3.276
  430DIO     C624032   6.858   3.281   3.051
  430DIO     F324033   6.992   3.279   3.066
  430DIO     C724034   6.418   3.292   3.004
  430DIO     C824035   6.341   3.414   3.034
  430DIO     C924036   6.196   3.418   3.020
  430DIO    C1024037   6.124   3.298   2.984
  430DIO    C1124038   6.196   3.178   2.946
  430DIO    C1224039   6.340   3.175   2.958
  430DIO     F424040   6.405   3.061   2.927
  430DIO     O124041   5.992   3.314   2.948
  430DIO    C1324042   5.897   3.216   2.978
  430DIO     O224043   5.896   3.120   3.059
  430DIO    C1424044   5.768   3.241   2.913
  430DIO    C1524045   5.702   3.373   2.919
  430DIO     F524046   5.764   3.478   2.977
  430DIO    C1624047   5.571   3.398   2.861
  430DIO    C1724048   5.495   3.290   2.800
  430DIO    C1824049   5.564   3.163   2.777
  430DIO    C1924050   5.695   3.139   2.834
  430DIO     F624051   5.758   3.025   2.797
  430DIO    C2024052   5.354   3.311   2.749
  430DIO     O324053   5.285   3.417   2.816
  430DIO    C2124054   5.241   3.380   2.946
  430DIO    C2224055   5.152   3.257   2.942
  430DIO    C2324056   5.233   3.147   2.872
  430DIO     O424057   5.277   3.191   2.744
  430DIO    C2424058   5.019   3.280   2.866
  430DIO    C2524059   4.929   3.390   2.923
  430DIO    C2624060   4.890   3.368   3.069
  430DIO     H124061   6.611   3.204   2.818
  430DIO     H224062   6.569   3.359   3.230
  430DIO     H324063   6.393   3.505   3.063
  430DIO     H424064   6.141   3.510   3.034
  430DIO     H524065   6.142   3.090   2.914
  430DIO     H624066   5.533   3.500   2.861
  430DIO     H724067   5.521   3.087   2.713
  430DIO     H824068   5.364   3.344   2.645
  430DIO     H924069   5.328   3.363   3.011
  430DIO    H1024070   5.188   3.466   2.989
  430DIO    H1124071   5.130   3.224   3.044
  430DIO    H1224072   5.172   3.057   2.857
  430DIO    H1324073   5.319   3.117   2.933
  430DIO    H1424074   5.039   3.304   2.761
  430DIO    H1524075   4.963   3.186   2.866
  430DIO    H1624076   4.976   3.488   2.912
  430DIO    H1724077   4.837   3.393   2.863
  430DIO    H1824078   4.846   3.269   3.084
  430DIO    H1924079   4.977   3.378   3.135
  430DIO    H2024080   4.817   3.443   3.099
  431DIO     F124081   3.558   1.413   5.301
  431DIO     C124082   3.481   1.415   5.411
  431DIO     C224083   3.337   1.423   5.396
  431DIO     C324084   3.248   1.428   5.514
  431DIO     C424085   3.313   1.421   5.647
  431DIO     C524086   3.458   1.413   5.659
  431DIO     F224087   3.513   1.402   5.781
  431DIO     C624088   3.541   1.409   5.541
  431DIO     F324089   3.675   1.402   5.554
  431DIO     C724090   3.101   1.437   5.501
  431DIO     C824091   3.024   1.539   5.576
  431DIO     C924092   2.880   1.548   5.564
  431DIO    C1024093   2.807   1.450   5.485
  431DIO    C1124094   2.879   1.354   5.404
  431DIO    C1224095   3.024   1.346   5.415
  431DIO     F424096   3.088   1.252   5.343
  431DIO     O124097   2.675   1.479   5.459
  431DIO    C1324098   2.580   1.377   5.449
  431DIO     O224099   2.579   1.258   5.487
  431DIO    C1424100   2.451   1.425   5.398
  431DIO    C1524101   2.385   1.545   5.454
  431DIO     F524102   2.447   1.620   5.547
  431DIO    C1624103   2.254   1.590   5.410
  431DIO    C1724104   2.178   1.513   5.312
  431DIO    C1824105   2.247   1.404   5.243
  431DIO    C1924106   2.379   1.360   5.287
  431DIO     F624107   2.441   1.269   5.209
  431DIO    C2024108   2.038   1.552   5.273
  431DIO     O324109   1.968   1.624   5.375
  431DIO    C2124110   1.924   1.541   5.482
  431DIO    C2224111   1.835   1.428   5.431
  431DIO    C2324112   1.916   1.353   5.325
  431DIO     O424113   1.960   1.442   5.223
  431DIO    C2424114   1.702   1.479   5.370
  431DIO    C2524115   1.612   1.558   5.464
  431DIO    C2624116   1.573   1.484   5.591
  431DIO     H124117   3.294   1.426   5.296
  431DIO     H224118   3.253   1.414   5.737
  431DIO     H324119   3.076   1.612   5.637
  431DIO     H424120   2.824   1.628   5.612
  431DIO     H524121   2.825   1.285   5.342
  431DIO     H624122   2.216   1.684   5.448
  431DIO     H724123   2.204   1.358   5.155
  431DIO     H824124   2.047   1.622   5.190
  431DIO     H924125   2.011   1.501   5.535
  431DIO    H1024126   1.871   1.604   5.554
  431DIO    H1124127   1.813   1.359   5.513
  431DIO    H1224128   1.855   1.276   5.277
  431DIO    H1324129   2.002   1.303   5.370
  431DIO    H1424130   1.722   1.541   5.282
  431DIO    H1524131   1.646   1.392   5.334
  431DIO    H1624132   1.659   1.654   5.491
  431DIO    H1724133   1.520   1.584   5.410
  431DIO    H1824134   1.529   1.386   5.567
  431DIO    H1924135   1.660   1.468   5.656
  431DIO    H2024136   1.500   1.541   5.647
  432DIO     F124137   5.027   3.153   4.656
  432DIO     C124138   4.949   3.232   4.732
  432DIO     C224139   4.805   3.227   4.716
  432DIO     C324140   4.716   3.314   4.797
  432DIO     C424141   4.782   3.403   4.896
  432DIO     C524142   4.926   3.405   4.910
  432DIO     F224143   4.981   3.484   5.004
  432DIO     C624144   5.010   3.320   4.829
  432DIO     F324145   5.143   3.324   4.843
  432DIO     C724146   4.570   3.312   4.781
  432DIO     C824147   4.493   3.437   4.762
  432DIO     C924148   4.348   3.435   4.747
  432DIO    C1024149   4.275   3.310   4.760
  432DIO    C1124150   4.348   3.184   4.771
  432DIO    C1224151   4.492   3.186   4.783
  432DIO     F424152   4.557   3.069   4.799
  432DIO     O124153   4.143   3.311   4.721
  432DIO    C1324154   4.049   3.232   4.786
  432DIO     O224155   4.048   3.174   4.898
  432DIO    C1424156   3.919   3.230   4.716
  432DIO    C1524157   3.853   3.355   4.671
  432DIO     F524158   3.916   3.473   4.685
  432DIO    C1624159   3.722   3.355   4.608
  432DIO    C1724160   3.647   3.232   4.594
  432DIO    C1824161   3.715   3.106   4.621
  432DIO    C1924162   3.847   3.106   4.683
  432DIO     F624163   3.909   2.986   4.692
  432DIO    C2024164   3.506   3.232   4.539
  432DIO     O324165   3.436   3.355   4.559
  432DIO    C2124166   3.392   3.372   4.694
  432DIO    C2224167   3.304   3.256   4.737
  432DIO    C2324168   3.384   3.128   4.715
  432DIO     O424169   3.429   3.119   4.580
  432DIO    C2424170   3.171   3.248   4.658
  432DIO    C2524171   3.080   3.371   4.669
  432DIO    C2624172   3.042   3.407   4.812
  432DIO     H124173   4.762   3.159   4.643
  432DIO     H224174   4.721   3.461   4.964
  432DIO     H324175   4.544   3.531   4.754
  432DIO     H424176   4.293   3.525   4.725
  432DIO     H524177   4.293   3.091   4.775
  432DIO     H624178   3.684   3.449   4.570
  432DIO     H724179   3.672   3.011   4.592
  432DIO     H824180   3.516   3.223   4.430
  432DIO     H924181   3.479   3.380   4.760
  432DIO    H1024182   3.340   3.467   4.701
  432DIO    H1124183   3.281   3.265   4.844
  432DIO    H1224184   3.323   3.039   4.736
  432DIO    H1324185   3.470   3.124   4.783
  432DIO    H1424186   3.191   3.230   4.552
  432DIO    H1524187   3.114   3.161   4.694
  432DIO    H1624188   3.127   3.458   4.621
  432DIO    H1724189   2.988   3.351   4.612
  432DIO    H1824190   2.998   3.322   4.864
  432DIO    H1924191   3.128   3.442   4.869
  432DIO    H2024192   2.968   3.488   4.811
  433DIO     F124193   7.339   8.759   6.795
  433DIO     C124194   7.262   8.666   6.737
  433DIO     C224195   7.118   8.674   6.752
  433DIO     C324196   7.029   8.572   6.692
  433DIO     C424197   7.094   8.464   6.614
  433DIO     C524198   7.239   8.458   6.601
  433DIO     F224199   7.294   8.361   6.526
  433DIO     C624200   7.322   8.559   6.661
  433DIO     F324201   7.456   8.552   6.649
  433DIO     C724202   6.883   8.577   6.707
  433DIO     C824203   6.805   8.459   6.752
  433DIO     C924204   6.661   8.464   6.766
  433DIO    C1024205   6.588   8.584   6.727
  433DIO    C1124206   6.661   8.704   6.689
  433DIO    C1224207   6.805   8.699   6.677
  433DIO     F424208   6.870   8.810   6.637
  433DIO     O124209   6.456   8.590   6.765
  433DIO    C1324210   6.361   8.654   6.685
  433DIO     O224211   6.361   8.687   6.563
  433DIO    C1424212   6.232   8.671   6.753
  433DIO    C1524213   6.166   8.559   6.823
  433DIO     F524214   6.229   8.440   6.835
  433DIO    C1624215   6.035   8.572   6.885
  433DIO    C1724216   5.959   8.696   6.873
  433DIO    C1824217   6.028   8.812   6.819
  433DIO    C1924218   6.160   8.800   6.758
  433DIO     F624219   6.222   8.914   6.724
  433DIO    C2024220   5.819   8.707   6.926
  433DIO     O324221   5.749   8.582   6.932
  433DIO    C2124222   5.705   8.537   6.805
  433DIO    C2224223   5.616   8.641   6.738
  433DIO    C2324224   5.697   8.771   6.732
  433DIO     O424225   5.741   8.809   6.862
  433DIO    C2424226   5.484   8.665   6.813
  433DIO    C2524227   5.393   8.543   6.829
  433DIO    C2624228   5.355   8.477   6.697
  433DIO     H124229   7.075   8.756   6.809
  433DIO     H224230   7.034   8.392   6.560
  433DIO     H324231   6.857   8.368   6.780
  433DIO     H424232   6.606   8.381   6.807
  433DIO     H524233   6.606   8.794   6.665
  433DIO     H624234   5.997   8.488   6.943
  433DIO     H724235   5.985   8.911   6.827
  433DIO     H824236   5.828   8.739   7.031
  433DIO     H924237   5.792   8.514   6.742
  433DIO    H1024238   5.653   8.443   6.818
  433DIO    H1124239   5.594   8.610   6.635
  433DIO    H1224240   5.636   8.853   6.693
  433DIO    H1324241   5.783   8.761   6.665
  433DIO    H1424242   5.504   8.706   6.913
  433DIO    H1524243   5.427   8.743   6.759
  433DIO    H1624244   5.440   8.469   6.894
  433DIO    H1724245   5.301   8.575   6.880
  433DIO    H1824246   5.311   8.550   6.628
  433DIO    H1924247   5.441   8.431   6.649
  433DIO    H2024248   5.281   8.398   6.715
  434DIO     F124249   9.580   1.598   2.771
  434DIO     C124250   9.502   1.550   2.869
  434DIO     C224251   9.358   1.564   2.860
  434DIO     C324252   9.269   1.514   2.967
  434DIO     C424253   9.335   1.447   3.083
  434DIO     C524254   9.479   1.434   3.089
  434DIO     F224255   9.535   1.370   3.194
  434DIO     C624256   9.563   1.485   2.983
  434DIO     F324257   9.697   1.473   2.991
  434DIO     C724258   9.123   1.528   2.960
  434DIO     C824259   9.046   1.585   3.073
  434DIO     C924260   8.901   1.598   3.067
  434DIO    C1024261   8.829   1.547   2.952
  434DIO    C1124262   8.901   1.498   2.836
  434DIO    C1224263   9.045   1.487   2.842
  434DIO     F424264   9.110   1.436   2.735
  434DIO     O124265   8.696   1.585   2.942
  434DIO    C1324266   8.602   1.499   2.886
  434DIO     O224267   8.601   1.375   2.866
  434DIO    C1424268   8.473   1.564   2.863
  434DIO    C1524269   8.406   1.646   2.967
  434DIO     F524270   8.469   1.670   3.084
  434DIO    C1624271   8.276   1.706   2.948
  434DIO    C1724272   8.200   1.682   2.826
  434DIO    C1824273   8.269   1.616   2.715
  434DIO    C1924274   8.400   1.558   2.734
  434DIO     F624275   8.463   1.511   2.624
  434DIO    C2024276   8.059   1.734   2.810
  434DIO     O324277   7.989   1.752   2.933
  434DIO    C2124278   7.946   1.629   2.991
  434DIO    C2224279   7.857   1.552   2.893
  434DIO    C2324280   7.938   1.534   2.765
  434DIO     O424281   7.982   1.660   2.715
  434DIO    C2424282   7.724   1.625   2.862
  434DIO    C2524283   7.633   1.653   2.983
  434DIO    C2624284   7.595   1.529   3.061
  434DIO     H124285   9.316   1.612   2.773
  434DIO     H224286   9.274   1.400   3.159
  434DIO     H324287   9.097   1.622   3.161
  434DIO     H424288   8.846   1.647   3.146
  434DIO     H524289   8.847   1.465   2.749
  434DIO     H624290   8.238   1.772   3.026
  434DIO     H724291   8.226   1.615   2.616
  434DIO     H824292   8.069   1.834   2.767
  434DIO     H924293   8.032   1.569   3.019
  434DIO    H1024294   7.893   1.653   3.083
  434DIO    H1124295   7.834   1.454   2.935
  434DIO    H1224296   7.877   1.487   2.687
  434DIO    H1324297   8.024   1.468   2.782
  434DIO    H1424298   7.744   1.721   2.812
  434DIO    H1524299   7.668   1.564   2.790
  434DIO    H1624300   7.681   1.726   3.050
  434DIO    H1724301   7.542   1.701   2.946
  434DIO    H1824302   7.551   1.453   2.996
  434DIO    H1924303   7.682   1.485   3.112
  434DIO    H2024304   7.521   1.554   3.138
  435DIO     F124305   3.467   3.179   5.926
  435DIO     C124306   3.390   3.095   5.855
  435DIO     C224307   3.246   3.100   5.871
  435DIO     C324308   3.157   3.008   5.796
  435DIO     C424309   3.222   2.913   5.704
  435DIO     C524310   3.367   2.910   5.689
  435DIO     F224311   3.422   2.824   5.601
  435DIO     C624312   3.450   3.000   5.764
  435DIO     F324313   3.584   2.995   5.751
  435DIO     C724314   3.010   3.012   5.812
  435DIO     C824315   2.933   2.888   5.839
  435DIO     C924316   2.789   2.891   5.854
  435DIO    C1024317   2.716   3.015   5.833
  435DIO    C1124318   2.789   3.140   5.813
  435DIO    C1224319   2.933   3.137   5.801
  435DIO     F424320   2.998   3.253   5.778
  435DIO     O124321   2.584   3.016   5.872
  435DIO    C1324322   2.489   3.091   5.802
  435DIO     O224323   2.488   3.141   5.686
  435DIO    C1424324   2.360   3.097   5.871
  435DIO    C1524325   2.294   2.976   5.924
  435DIO     F524326   2.357   2.857   5.919
  435DIO    C1624327   2.163   2.980   5.987
  435DIO    C1724328   2.087   3.104   5.994
  435DIO    C1824329   2.156   3.228   5.957
  435DIO    C1924330   2.288   3.224   5.896
  435DIO     F624331   2.350   3.342   5.878
  435DIO    C2024332   1.947   3.108   6.048
  435DIO     O324333   1.877   2.983   6.036
  435DIO    C2124334   1.833   2.958   5.903
  435DIO    C2224335   1.744   3.071   5.852
  435DIO    C2324336   1.825   3.200   5.866
  435DIO     O424337   1.869   3.218   6.000
  435DIO    C2424338   1.612   3.083   5.930
  435DIO    C2524339   1.521   2.960   5.928
  435DIO    C2624340   1.482   2.914   5.788
  435DIO     H124341   3.203   3.173   5.939
  435DIO     H224342   3.162   2.850   5.639
  435DIO     H324343   2.985   2.794   5.853
  435DIO     H424344   2.734   2.803   5.882
  435DIO     H524345   2.734   3.232   5.803
  435DIO     H624346   2.125   2.889   6.032
  435DIO     H724347   2.113   3.324   5.981
  435DIO     H824348   1.956   3.124   6.156
  435DIO     H924349   1.920   2.945   5.837
  435DIO    H1024350   1.780   2.862   5.903
  435DIO    H1124351   1.722   3.054   5.746
  435DIO    H1224352   1.764   3.287   5.839
  435DIO    H1324353   1.911   3.199   5.798
  435DIO    H1424354   1.631   3.108   6.035
  435DIO    H1524355   1.555   3.168   5.888
  435DIO    H1624356   1.568   2.877   5.981
  435DIO    H1724357   1.429   2.984   5.983
  435DIO    H1824358   1.439   2.996   5.730
  435DIO    H1924359   1.569   2.876   5.733
  435DIO    H2024360   1.409   2.833   5.794
  436DIO     F124361   6.660   7.324   5.306
  436DIO     C124362   6.582   7.287   5.202
  436DIO     C224363   6.438   7.284   5.219
  436DIO     C324364   6.349   7.241   5.108
  436DIO     C424365   6.415   7.204   4.981
  436DIO     C524366   6.559   7.208   4.966
  436DIO     F224367   6.614   7.178   4.847
  436DIO     C624368   6.643   7.250   5.076
  436DIO     F324369   6.776   7.252   5.062
  436DIO     C724370   6.203   7.236   5.124
  436DIO     C824371   6.126   7.115   5.086
  436DIO     C924372   5.981   7.111   5.100
  436DIO    C1024373   5.908   7.229   5.143
  436DIO    C1124374   5.981   7.346   5.188
  436DIO    C1224375   6.125   7.350   5.176
  436DIO     F424376   6.190   7.462   5.213
  436DIO     O124377   5.776   7.210   5.177
  436DIO    C1324378   5.682   7.310   5.154
  436DIO     O224379   5.681   7.411   5.079
  436DIO    C1424380   5.553   7.281   5.217
  436DIO    C1524381   5.486   7.149   5.203
  436DIO     F524382   5.549   7.049   5.139
  436DIO    C1624383   5.355   7.121   5.260
  436DIO    C1724384   5.280   7.226   5.327
  436DIO    C1824385   5.348   7.351   5.357
  436DIO    C1924386   5.480   7.379   5.302
  436DIO     F624387   5.543   7.490   5.345
  436DIO    C2024388   5.139   7.202   5.376
  436DIO     O324389   5.069   7.100   5.304
  436DIO    C2124390   5.026   7.144   5.175
  436DIO    C2224391   4.937   7.267   5.188
  436DIO    C2324392   5.017   7.373   5.263
  436DIO     O424393   5.062   7.322   5.389
  436DIO    C2424394   4.804   7.239   5.261
  436DIO    C2524395   4.713   7.133   5.198
  436DIO    C2624396   4.675   7.163   5.054
  436DIO     H124397   6.395   7.313   5.314
  436DIO     H224398   6.354   7.182   4.893
  436DIO     H324399   6.177   7.027   5.052
  436DIO     H424400   5.926   7.020   5.081
  436DIO     H524401   5.926   7.432   5.225
  436DIO     H624402   5.317   7.020   5.253
  436DIO     H724403   5.306   7.424   5.425
  436DIO     H824404   5.149   7.163   5.478
  436DIO     H924405   5.112   7.165   5.112
  436DIO    H1024406   4.973   7.061   5.128
  436DIO    H1124407   4.914   7.306   5.087
  436DIO    H1224408   4.956   7.461   5.283
  436DIO    H1324409   5.104   7.406   5.204
  436DIO    H1424410   4.824   7.209   5.365
  436DIO    H1524411   4.747   7.333   5.267
  436DIO    H1624412   4.761   7.035   5.204
  436DIO    H1724413   4.621   7.127   5.258
  436DIO    H1824414   4.631   7.263   5.045
  436DIO    H1924415   4.761   7.157   4.987
  436DIO    H2024416   4.601   7.090   5.019
  437DIO     F124417   8.036   9.237   5.818
  437DIO     C124418   7.958   9.203   5.713
  437DIO     C224419   7.814   9.199   5.730
  437DIO     C324420   7.725   9.160   5.618
  437DIO     C424421   7.791   9.128   5.489
  437DIO     C524422   7.935   9.133   5.475
  437DIO     F224423   7.990   9.107   5.355
  437DIO     C624424   8.019   9.170   5.586
  437DIO     F324425   8.153   9.173   5.572
  437DIO     C724426   7.579   9.155   5.633
  437DIO     C824427   7.502   9.036   5.591
  437DIO     C924428   7.357   9.030   5.605
  437DIO    C1024429   7.284   9.147   5.652
  437DIO    C1124430   7.357   9.263   5.701
  437DIO    C1224431   7.501   9.267   5.689
  437DIO     F424432   7.566   9.378   5.731
  437DIO     O124433   7.152   9.127   5.686
  437DIO    C1324434   7.058   9.227   5.666
  437DIO     O224435   7.057   9.331   5.594
  437DIO    C1424436   6.929   9.197   5.728
  437DIO    C1524437   6.862   9.066   5.710
  437DIO     F524438   6.925   8.967   5.642
  437DIO    C1624439   6.732   9.035   5.765
  437DIO    C1724440   6.656   9.138   5.836
  437DIO    C1824441   6.725   9.262   5.870
  437DIO    C1924442   6.856   9.291   5.816
  437DIO     F624443   6.919   9.401   5.863
  437DIO    C2024444   6.515   9.112   5.884
  437DIO     O324445   6.445   9.013   5.808
  437DIO    C2124446   6.402   9.061   5.682
  437DIO    C2224447   6.313   9.184   5.698
  437DIO    C2324448   6.394   9.287   5.777
  437DIO     O424449   6.438   9.231   5.901
  437DIO    C2424450   6.180   9.153   5.771
  437DIO    C2524451   6.089   9.050   5.704
  437DIO    C2624452   6.051   9.085   5.561
  437DIO     H124453   7.771   9.225   5.826
  437DIO     H224454   7.730   9.109   5.401
  437DIO     H324455   7.553   8.948   5.554
  437DIO     H424456   7.302   8.940   5.583
  437DIO     H524457   7.303   9.347   5.741
  437DIO     H624458   6.693   8.935   5.755
  437DIO     H724459   6.682   9.332   5.941
  437DIO     H824460   6.525   9.069   5.985
  437DIO     H924461   6.488   9.084   5.619
  437DIO    H1024462   6.349   8.980   5.631
  437DIO    H1124463   6.290   9.226   5.599
  437DIO    H1224464   6.332   9.374   5.800
  437DIO    H1324465   6.480   9.322   5.719
  437DIO    H1424466   6.200   9.120   5.873
  437DIO    H1524467   6.124   9.247   5.780
  437DIO    H1624468   6.137   8.951   5.706
  437DIO    H1724469   5.998   9.041   5.763
  437DIO    H1824470   6.007   9.185   5.555
  437DIO    H1924471   6.137   9.081   5.494
  437DIO    H2024472   5.977   9.013   5.523
  438DIO     F124473   9.955   9.193   3.521
  438DIO     C124474   9.877   9.257   3.432
  438DIO     C224475   9.733   9.241   3.439
  438DIO     C324476   9.644   9.308   3.341
  438DIO     C424477   9.710   9.392   3.238
  438DIO     C524478   9.854   9.406   3.233
  438DIO     F224479   9.910   9.486   3.141
  438DIO     C624480   9.938   9.339   3.330
  438DIO     F324481  10.072   9.352   3.324
  438DIO     C724482   9.498   9.292   3.345
  438DIO     C824483   9.421   9.255   3.225
  438DIO     C924484   9.276   9.240   3.229
  438DIO    C1024485   9.204   9.272   3.351
  438DIO    C1124486   9.276   9.302   3.473
  438DIO    C1224487   9.420   9.314   3.469
  438DIO     F424488   9.485   9.347   3.582
  438DIO     O124489   9.071   9.233   3.355
  438DIO    C1324490   8.977   9.309   3.423
  438DIO     O224491   8.976   9.429   3.463
  438DIO    C1424492   8.848   9.241   3.436
  438DIO    C1524493   8.781   9.177   3.320
  438DIO     F524494   8.844   9.173   3.200
  438DIO    C1624495   8.651   9.115   3.329
  438DIO    C1724496   8.575   9.119   3.453
  438DIO    C1824497   8.644   9.166   3.573
  438DIO    C1924498   8.775   9.227   3.564
  438DIO     F624499   8.838   9.255   3.681
  438DIO    C2024500   8.434   9.065   3.461
  438DIO     O324501   8.364   9.067   3.336
  438DIO    C2124502   8.321   9.197   3.299
  438DIO    C2224503   8.232   9.258   3.408
  438DIO    C2324504   8.313   9.255   3.537
  438DIO     O424505   8.357   9.123   3.567
  438DIO    C2424506   8.099   9.181   3.427
  438DIO    C2524507   8.008   9.173   3.303
  438DIO    C2624508   7.970   9.308   3.246
  438DIO     H124509   9.691   9.180   3.517
  438DIO     H224510   9.649   9.451   3.170
  438DIO     H324511   9.472   9.232   3.132
  438DIO     H424512   9.221   9.205   3.143
  438DIO     H524513   9.222   9.321   3.564
  438DIO     H624514   8.613   9.063   3.242
  438DIO     H724515   8.601   9.151   3.671
  438DIO     H824516   8.444   8.959   3.487
  438DIO     H924517   8.407   9.261   3.280
  438DIO    H1024518   8.268   9.189   3.204
  438DIO    H1124519   8.209   9.362   3.382
  438DIO    H1224520   8.252   9.289   3.621
  438DIO    H1324521   8.399   9.323   3.531
  438DIO    H1424522   8.119   9.079   3.461
  438DIO    H1524523   8.043   9.230   3.507
  438DIO    H1624524   8.056   9.112   3.225
  438DIO    H1724525   7.917   9.120   3.332
  438DIO    H1824526   7.926   9.373   3.323
  438DIO    H1924527   8.057   9.359   3.203
  438DIO    H2024528   7.896   9.295   3.166
  439DIO     F124529   7.392   7.058   0.221
  439DIO     C124530   7.314   6.961   0.273
  439DIO     C224531   7.170   6.978   0.274
  439DIO     C324532   7.081   6.874   0.331
  439DIO     C424533   7.147   6.753   0.385
  439DIO     C524534   7.291   6.738   0.383
  439DIO     F224535   7.346   6.624   0.430
  439DIO     C624536   7.375   6.841   0.327
  439DIO     F324537   7.509   6.827   0.327
  439DIO     C724538   6.935   6.890   0.334
  439DIO     C824539   6.858   6.869   0.459
  439DIO     C924540   6.713   6.884   0.461
  439DIO    C1024541   6.640   6.910   0.338
  439DIO    C1124542   6.713   6.938   0.216
  439DIO    C1224543   6.857   6.926   0.214
  439DIO     F424544   6.922   6.947   0.098
  439DIO     O124545   6.508   6.947   0.352
  439DIO    C1324546   6.414   6.910   0.257
  439DIO     O224547   6.413   6.821   0.167
  439DIO    C1424548   6.285   6.977   0.277
  439DIO    C1524549   6.218   6.981   0.409
  439DIO     F524550   6.281   6.931   0.517
  439DIO    C1624551   6.088   7.041   0.429
  439DIO    C1724552   6.012   7.093   0.316
  439DIO    C1824553   6.081   7.105   0.188
  439DIO    C1924554   6.212   7.047   0.168
  439DIO     F624555   6.275   7.074   0.052
  439DIO    C2024556   5.871   7.145   0.333
  439DIO     O324557   5.801   7.087   0.444
  439DIO    C2124558   5.758   6.954   0.418
  439DIO    C2224559   5.669   6.949   0.294
  439DIO    C2324560   5.750   7.009   0.179
  439DIO     O424561   5.794   7.141   0.212
  439DIO    C2424562   5.536   7.026   0.312
  439DIO    C2524563   5.445   6.978   0.425
  439DIO    C2624564   5.407   6.831   0.416
  439DIO     H124565   7.127   7.068   0.231
  439DIO     H224566   7.086   6.669   0.420
  439DIO     H324567   6.909   6.848   0.551
  439DIO     H424568   6.658   6.877   0.554
  439DIO     H524569   6.659   6.963   0.126
  439DIO     H624570   6.049   7.049   0.530
  439DIO     H724571   6.038   7.162   0.106
  439DIO     H824572   5.881   7.251   0.357
  439DIO     H924573   5.844   6.888   0.406
  439DIO    H1024574   5.705   6.918   0.507
  439DIO    H1124575   5.646   6.844   0.270
  439DIO    H1224576   5.688   7.017   0.089
  439DIO    H1324577   5.836   6.946   0.155
  439DIO    H1424578   5.556   7.133   0.327
  439DIO    H1524579   5.480   7.019   0.218
  439DIO    H1624580   5.493   6.997   0.522
  439DIO    H1724581   5.354   7.038   0.424
  439DIO    H1824582   5.363   6.808   0.318
  439DIO    H1924583   5.493   6.766   0.431
  439DIO    H2024584   5.333   6.807   0.493
  440DIO     F124585   7.717   8.463   0.772
  440DIO     C124586   7.640   8.353   0.775
  440DIO     C224587   7.496   8.367   0.784
  440DIO     C324588   7.407   8.249   0.790
  440DIO     C424589   7.472   8.116   0.785
  440DIO     C524590   7.617   8.104   0.777
  440DIO     F224591   7.672   7.982   0.768
  440DIO     C624592   7.700   8.222   0.771
  440DIO     F324593   7.834   8.209   0.765
  440DIO     C724594   7.261   8.262   0.799
  440DIO     C824595   7.183   8.189   0.902
  440DIO     C924596   7.039   8.201   0.911
  440DIO    C1024597   6.966   8.278   0.812
  440DIO    C1124598   7.039   8.358   0.714
  440DIO    C1224599   7.183   8.347   0.707
  440DIO     F424600   7.248   8.418   0.612
  440DIO     O124601   6.834   8.305   0.841
  440DIO    C1324602   6.739   8.314   0.739
  440DIO     O224603   6.739   8.274   0.619
  440DIO    C1424604   6.610   8.365   0.786
  440DIO    C1524605   6.544   8.311   0.906
  440DIO     F524606   6.607   8.219   0.982
  440DIO    C1624607   6.413   8.356   0.951
  440DIO    C1724608   6.337   8.452   0.872
  440DIO    C1824609   6.406   8.520   0.762
  440DIO    C1924610   6.538   8.476   0.719
  440DIO     F624611   6.600   8.552   0.627
  440DIO    C2024612   6.197   8.492   0.910
  440DIO     O324613   6.127   8.391   0.984
  440DIO    C2124614   6.083   8.283   0.903
  440DIO    C2224615   5.994   8.333   0.789
  440DIO    C2324616   6.075   8.438   0.713
  440DIO     O424617   6.119   8.541   0.800
  440DIO    C2424618   5.862   8.394   0.839
  440DIO    C2524619   5.771   8.301   0.920
  440DIO    C2624620   5.733   8.173   0.847
  440DIO     H124621   7.453   8.467   0.785
  440DIO     H224622   7.412   8.026   0.779
  440DIO     H324623   7.235   8.128   0.975
  440DIO     H424624   6.984   8.154   0.991
  440DIO     H524625   6.984   8.420   0.644
  440DIO     H624626   6.375   8.318   1.045
  440DIO     H724627   6.363   8.607   0.715
  440DIO     H824628   6.206   8.576   0.979
  440DIO     H924629   6.170   8.229   0.863
  440DIO    H1024630   6.031   8.212   0.967
  440DIO    H1124631   5.972   8.250   0.721
  440DIO    H1224632   6.014   8.484   0.635
  440DIO    H1324633   6.161   8.392   0.663
  440DIO    H1424634   5.882   8.483   0.900
  440DIO    H1524635   5.805   8.429   0.751
  440DIO    H1624636   5.818   8.275   1.015
  440DIO    H1724637   5.679   8.356   0.945
  440DIO    H1824638   5.689   8.196   0.749
  440DIO    H1924639   5.819   8.108   0.832
  440DIO    H2024640   5.659   8.117   0.905
  441DIO     F124641   3.548   6.474   7.890
  441DIO     C124642   3.470   6.433   7.788
  441DIO     C224643   3.326   6.431   7.804
  441DIO     C324644   3.238   6.384   7.696
  441DIO     C424645   3.303   6.343   7.569
  441DIO     C524646   3.447   6.346   7.555
  441DIO     F224647   3.503   6.312   7.437
  441DIO     C624648   3.531   6.392   7.663
  441DIO     F324649   3.665   6.393   7.649
  441DIO     C724650   3.091   6.380   7.711
  441DIO     C824651   3.014   6.258   7.678
  441DIO     C924652   2.869   6.254   7.692
  441DIO    C1024653   2.797   6.373   7.731
  441DIO    C1124654   2.869   6.492   7.771
  441DIO    C1224655   3.013   6.496   7.759
  441DIO     F424656   3.078   6.609   7.792
  441DIO     O124657   2.665   6.356   7.766
  441DIO    C1324658   2.570   6.454   7.738
  441DIO     O224659   2.569   6.552   7.660
  441DIO    C1424660   2.441   6.428   7.803
  441DIO    C1524661   2.375   6.296   7.794
  441DIO     F524662   2.437   6.193   7.734
  441DIO    C1624663   2.244   6.270   7.851
  441DIO    C1724664   2.168   6.377   7.915
  441DIO    C1824665   2.237   6.503   7.940
  441DIO    C1924666   2.368   6.529   7.884
  441DIO     F624667   2.431   6.642   7.923
  441DIO    C2024668   2.027   6.355   7.965
  441DIO     O324669   1.958   6.250   7.896
  441DIO    C2124670   1.914   6.290   7.766
  441DIO    C2224671   1.825   6.413   7.774
  441DIO    C2324672   1.906   6.521   7.846
  441DIO     O424673   1.950   6.475   7.973
  441DIO    C2424674   1.692   6.388   7.849
  441DIO    C2524675   1.602   6.280   7.789
  441DIO    C2624676   1.563   6.304   7.644
  441DIO     H124677   3.284   6.464   7.898
  441DIO     H224678   3.242   6.317   7.483
  441DIO     H324679   3.066   6.168   7.647
  441DIO     H424680   2.814   6.162   7.676
  441DIO     H524681   2.815   6.579   7.805
  441DIO     H624682   2.206   6.169   7.849
  441DIO     H724683   2.194   6.578   8.005
  441DIO     H824684   2.037   6.320   8.068
  441DIO     H924685   2.001   6.308   7.702
  441DIO    H1024686   1.861   6.205   7.722
  441DIO    H1124687   1.803   6.448   7.672
  441DIO    H1224688   1.845   6.611   7.862
  441DIO    H1324689   1.992   6.553   7.785
  441DIO    H1424690   1.712   6.362   7.953
  441DIO    H1524691   1.636   6.482   7.851
  441DIO    H1624692   1.649   6.181   7.798
  441DIO    H1724693   1.510   6.275   7.849
  441DIO    H1824694   1.519   6.404   7.631
  441DIO    H1924695   1.650   6.296   7.578
  441DIO    H2024696   1.490   6.230   7.612
  442DIO     F124697   6.663   9.629   7.442
  442DIO     C124698   6.585   9.680   7.344
  442DIO     C224699   6.441   9.665   7.353
  442DIO     C324700   6.353   9.718   7.247
  442DIO     C424701   6.418   9.787   7.134
  442DIO     C524702   6.562   9.800   7.127
  442DIO     F224703   6.618   9.868   7.024
  442DIO     C624704   6.646   9.747   7.232
  442DIO     F324705   6.780   9.759   7.224
  442DIO     C724706   6.206   9.703   7.254
  442DIO     C824707   6.129   9.650   7.139
  442DIO     C924708   5.984   9.636   7.146
  442DIO    C1024709   5.912   9.684   7.262
  442DIO    C1124710   5.984   9.730   7.379
  442DIO    C1224711   6.128   9.742   7.373
  442DIO     F424712   6.193   9.790   7.481
  442DIO     O124713   5.780   9.646   7.271
  442DIO    C1324714   5.685   9.731   7.328
  442DIO     O224715   5.684   9.855   7.352
  442DIO    C1424716   5.556   9.665   7.350
  442DIO    C1524717   5.490   9.586   7.244
  442DIO     F524718   5.552   9.565   7.126
  442DIO    C1624719   5.359   9.525   7.261
  442DIO    C1724720   5.283   9.547   7.384
  442DIO    C1824721   5.352   9.609   7.496
  442DIO    C1924722   5.483   9.668   7.479
  442DIO     F624723   5.546   9.712   7.591
  442DIO    C2024724   5.142   9.494   7.399
  442DIO     O324725   5.073   9.479   7.275
  442DIO    C2124726   5.029   9.603   7.221
  442DIO    C2224727   4.940   9.677   7.320
  442DIO    C2324728   5.021   9.693   7.449
  442DIO     O424729   5.065   9.566   7.496
  442DIO    C2424730   4.807   9.604   7.349
  442DIO    C2524731   4.717   9.579   7.228
  442DIO    C2624732   4.678   9.705   7.153
  442DIO     H124733   6.399   9.615   7.439
  442DIO     H224734   6.357   9.836   7.058
  442DIO     H324735   6.181   9.615   7.051
  442DIO     H424736   5.929   9.589   7.065
  442DIO     H524737   5.930   9.761   7.467
  442DIO     H624738   5.321   9.462   7.183
  442DIO     H724739   5.309   9.608   7.596
  442DIO     H824740   5.152   9.393   7.440
  442DIO     H924741   5.116   9.664   7.194
  442DIO    H1024742   4.976   9.582   7.128
  442DIO    H1124743   4.918   9.777   7.281
  442DIO    H1224744   4.960   9.738   7.528
  442DIO    H1324745   5.107   9.759   7.433
  442DIO    H1424746   4.827   9.507   7.397
  442DIO    H1524747   4.751   9.663   7.423
  442DIO    H1624748   4.764   9.508   7.160
  442DIO    H1724749   4.625   9.530   7.264
  442DIO    H1824750   4.634   9.780   7.220
  442DIO    H1924751   4.765   9.750   7.103
  442DIO    H2024752   4.605   9.682   7.076
  443DIO     F124753   3.918   5.499   0.468
  443DIO     C124754   3.840   5.440   0.375
  443DIO     C224755   3.696   5.441   0.392
  443DIO     C324756   3.607   5.375   0.294
  443DIO     C424757   3.673   5.311   0.177
  443DIO     C524758   3.817   5.312   0.162
  443DIO     F224759   3.872   5.257   0.053
  443DIO     C624760   3.901   5.377   0.261
  443DIO     F324761   4.034   5.376   0.246
  443DIO     C724762   3.461   5.374   0.310
  443DIO     C824763   3.384   5.248   0.299
  443DIO     C924764   3.239   5.246   0.314
  443DIO    C1024765   3.166   5.371   0.330
  443DIO    C1124766   3.239   5.495   0.349
  443DIO    C1224767   3.383   5.496   0.336
  443DIO     F424768   3.448   5.614   0.348
  443DIO     O124769   3.034   5.360   0.368
  443DIO    C1324770   2.940   5.452   0.323
  443DIO     O224771   2.939   5.534   0.228
  443DIO    C1424772   2.811   5.438   0.391
  443DIO    C1524773   2.744   5.307   0.407
  443DIO     F524774   2.807   5.194   0.366
  443DIO    C1624775   2.613   5.291   0.468
  443DIO    C1724776   2.538   5.409   0.510
  443DIO    C1824777   2.606   5.537   0.512
  443DIO    C1924778   2.738   5.552   0.452
  443DIO     F624779   2.801   5.670   0.471
  443DIO    C2024780   2.397   5.396   0.564
  443DIO     O324781   2.327   5.280   0.515
  443DIO    C2124782   2.284   5.295   0.380
  443DIO    C2224783   2.195   5.418   0.365
  443DIO    C2324784   2.275   5.537   0.416
  443DIO     O424785   2.320   5.515   0.550
  443DIO    C2424786   2.062   5.407   0.443
  443DIO    C2524787   1.971   5.290   0.405
  443DIO    C2624788   1.933   5.287   0.258
  443DIO     H124789   3.653   5.490   0.479
  443DIO     H224790   3.612   5.270   0.097
  443DIO     H324791   3.435   5.154   0.285
  443DIO     H424792   3.184   5.153   0.315
  443DIO     H524793   3.184   5.587   0.366
  443DIO     H624794   2.575   5.191   0.484
  443DIO     H724795   2.564   5.623   0.563
  443DIO     H824796   2.407   5.380   0.672
  443DIO     H924797   2.370   5.302   0.314
  443DIO    H1024798   2.231   5.204   0.352
  443DIO    H1124799   2.172   5.434   0.259
  443DIO    H1224800   2.214   5.628   0.416
  443DIO    H1324801   2.362   5.557   0.351
  443DIO    H1424802   2.082   5.400   0.551
  443DIO    H1524803   2.005   5.500   0.429
  443DIO    H1624804   2.019   5.195   0.432
  443DIO    H1724805   1.879   5.296   0.465
  443DIO    H1824806   1.889   5.383   0.227
  443DIO    H1924807   2.019   5.267   0.194
  443DIO    H2024808   1.859   5.209   0.240
  444DIO     F124809   9.361   6.133   8.036
  444DIO     C124810   9.283   6.061   7.953
  444DIO     C224811   9.139   6.064   7.969
  444DIO     C324812   9.051   5.984   7.882
  444DIO     C424813   9.116   5.903   7.776
  444DIO     C524814   9.260   5.902   7.762
  444DIO     F224815   9.316   5.831   7.662
  444DIO     C624816   9.344   5.980   7.849
  444DIO     F324817   9.478   5.977   7.835
  444DIO     C724818   8.904   5.985   7.898
  444DIO     C824819   8.827   5.859   7.907
  444DIO     C924820   8.682   5.860   7.922
  444DIO    C1024821   8.610   5.985   7.919
  444DIO    C1124822   8.682   6.111   7.918
  444DIO    C1224823   8.826   6.110   7.905
  444DIO     F424824   8.891   6.228   7.899
  444DIO     O124825   8.478   5.980   7.958
  444DIO    C1324826   8.383   6.064   7.899
  444DIO     O224827   8.382   6.131   7.793
  444DIO    C1424828   8.254   6.061   7.969
  444DIO    C1524829   8.188   5.933   8.004
  444DIO     F524830   8.250   5.816   7.981
  444DIO    C1624831   8.057   5.927   8.067
  444DIO    C1724832   7.981   6.050   8.091
  444DIO    C1824833   8.050   6.177   8.073
  444DIO    C1924834   8.181   6.182   8.012
  444DIO     F624835   8.244   6.302   8.012
  444DIO    C2024836   7.840   6.045   8.146
  444DIO     O324837   7.771   5.924   8.115
  444DIO    C2124838   7.727   5.918   7.980
  444DIO    C2224839   7.638   6.037   7.946
  444DIO    C2324840   7.719   6.163   7.979
  444DIO     O424841   7.763   6.161   8.114
  444DIO    C2424842   7.505   6.038   8.025
  444DIO    C2524843   7.415   5.916   8.005
  444DIO    C2624844   7.376   5.892   7.860
  444DIO     H124845   9.097   6.126   8.047
  444DIO     H224846   9.055   5.851   7.703
  444DIO     H324847   8.879   5.764   7.907
  444DIO     H424848   8.627   5.768   7.937
  444DIO     H524849   8.628   6.204   7.921
  444DIO     H624850   8.019   5.831   8.098
  444DIO     H724851   8.007   6.269   8.111
  444DIO     H824852   7.850   6.045   8.255
  444DIO     H924853   7.814   5.915   7.913
  444DIO    H1024854   7.674   5.823   7.966
  444DIO    H1124855   7.616   6.037   7.839
  444DIO    H1224856   7.658   6.253   7.965
  444DIO    H1324857   7.805   6.172   7.911
  444DIO    H1424858   7.525   6.048   8.133
  444DIO    H1524859   7.449   6.128   7.997
  444DIO    H1624860   7.462   5.826   8.046
  444DIO    H1724861   7.323   5.932   8.063
  444DIO    H1824862   7.332   5.981   7.815
  444DIO    H1924863   7.463   5.862   7.800
  444DIO    H2024864   7.303   5.811   7.854
  445DIO     F124865   4.241   7.623   2.476
  445DIO     C124866   4.163   7.701   2.553
  445DIO     C224867   4.019   7.697   2.537
  445DIO     C324868   3.930   7.783   2.618
  445DIO     C424869   3.996   7.870   2.718
  445DIO     C524870   4.140   7.873   2.732
  445DIO     F224871   4.195   7.951   2.827
  445DIO     C624872   4.224   7.788   2.651
  445DIO     F324873   4.357   7.792   2.664
  445DIO     C724874   3.784   7.780   2.602
  445DIO     C824875   3.707   7.906   2.585
  445DIO     C924876   3.562   7.904   2.570
  445DIO    C1024877   3.489   7.779   2.582
  445DIO    C1124878   3.562   7.653   2.591
  445DIO    C1224879   3.706   7.655   2.604
  445DIO     F424880   3.771   7.538   2.618
  445DIO     O124881   3.357   7.781   2.543
  445DIO    C1324882   3.263   7.701   2.607
  445DIO     O224883   3.262   7.642   2.718
  445DIO    C1424884   3.134   7.700   2.537
  445DIO    C1524885   3.067   7.824   2.493
  445DIO     F524886   3.130   7.943   2.508
  445DIO    C1624887   2.936   7.826   2.430
  445DIO    C1724888   2.861   7.702   2.414
  445DIO    C1824889   2.929   7.576   2.441
  445DIO    C1924890   3.061   7.575   2.502
  445DIO     F624891   3.124   7.456   2.511
  445DIO    C2024892   2.720   7.703   2.359
  445DIO     O324893   2.650   7.826   2.381
  445DIO    C2124894   2.607   7.841   2.516
  445DIO    C2224895   2.518   7.725   2.558
  445DIO    C2324896   2.598   7.597   2.534
  445DIO     O424897   2.643   7.589   2.399
  445DIO    C2424898   2.385   7.718   2.479
  445DIO    C2524899   2.294   7.841   2.491
  445DIO    C2624900   2.256   7.876   2.634
  445DIO     H124901   3.976   7.629   2.463
  445DIO     H224902   3.935   7.928   2.787
  445DIO     H324903   3.758   8.000   2.578
  445DIO     H424904   3.507   7.994   2.549
  445DIO     H524905   3.507   7.560   2.595
  445DIO     H624906   2.898   7.920   2.393
  445DIO     H724907   2.887   7.482   2.410
  445DIO     H824908   2.730   7.695   2.250
  445DIO     H924909   2.693   7.849   2.582
  445DIO    H1024910   2.554   7.937   2.524
  445DIO    H1124911   2.495   7.733   2.665
  445DIO    H1224912   2.537   7.509   2.555
  445DIO    H1324913   2.685   7.592   2.602
  445DIO    H1424914   2.405   7.701   2.373
  445DIO    H1524915   2.328   7.631   2.514
  445DIO    H1624916   2.342   7.928   2.444
  445DIO    H1724917   2.202   7.822   2.434
  445DIO    H1824918   2.212   7.790   2.685
  445DIO    H1924919   2.342   7.910   2.692
  445DIO    H2024920   2.182   7.957   2.634
  446DIO     F124921   9.954   7.496   2.220
  446DIO     C124922   9.877   7.475   2.328
  446DIO     C224923   9.733   7.486   2.315
  446DIO     C324924   9.644   7.466   2.432
  446DIO     C424925   9.709   7.431   2.560
  446DIO     C524926   9.854   7.421   2.570
  446DIO     F224927   9.909   7.385   2.688
  446DIO     C624928   9.937   7.442   2.455
  446DIO     F324929  10.071   7.433   2.465
  446DIO     C724930   9.498   7.478   2.421
  446DIO     C824931   9.420   7.562   2.516
  446DIO     C924932   9.276   7.573   2.506
  446DIO    C1024933   9.203   7.494   2.408
  446DIO    C1124934   9.276   7.417   2.309
  446DIO    C1224935   9.420   7.407   2.318
  446DIO     F424936   9.485   7.331   2.228
  446DIO     O124937   9.071   7.528   2.388
  446DIO    C1324938   8.976   7.431   2.357
  446DIO     O224939   8.976   7.305   2.370
  446DIO    C1424940   8.847   7.488   2.318
  446DIO    C1524941   8.781   7.593   2.398
  446DIO     F524942   8.844   7.647   2.505
  446DIO    C1624943   8.650   7.646   2.364
  446DIO    C1724944   8.574   7.591   2.252
  446DIO    C1824945   8.643   7.500   2.162
  446DIO    C1924946   8.775   7.448   2.195
  446DIO     F624947   8.837   7.375   2.100
  446DIO    C2024948   8.434   7.638   2.222
  446DIO     O324949   8.364   7.687   2.337
  446DIO    C2124950   8.320   7.584   2.424
  446DIO    C2224951   8.231   7.484   2.350
  446DIO    C2324952   8.312   7.433   2.231
  446DIO     O424953   8.356   7.541   2.150
  446DIO    C2424954   8.099   7.546   2.301
  446DIO    C2524955   8.008   7.604   2.410
  446DIO    C2624956   7.970   7.504   2.518
  446DIO     H124957   9.690   7.510   2.218
  446DIO     H224958   9.649   7.406   2.646
  446DIO     H324959   9.472   7.620   2.591
  446DIO     H424960   9.221   7.641   2.570
  446DIO     H524961   9.221   7.362   2.233
  446DIO     H624962   8.612   7.730   2.421
  446DIO     H724963   8.600   7.473   2.066
  446DIO     H824964   8.443   7.724   2.155
  446DIO     H924965   8.407   7.533   2.468
  446DIO    H1024966   8.268   7.630   2.508
  446DIO    H1124967   8.209   7.400   2.416
  446DIO    H1224968   8.251   7.367   2.168
  446DIO    H1324969   8.398   7.374   2.265
  446DIO    H1424970   8.119   7.625   2.228
  446DIO    H1524971   8.042   7.469   2.248
  446DIO    H1624972   8.055   7.692   2.457
  446DIO    H1724973   7.916   7.641   2.363
  446DIO    H1824974   7.926   7.414   2.475
  446DIO    H1924975   8.056   7.475   2.579
  446DIO    H2024976   7.896   7.549   2.586
  447DIO     F124977   5.787   8.922   8.948
  447DIO     C124978   5.710   8.839   8.875
  447DIO     C224979   5.566   8.844   8.892
  447DIO     C324980   5.477   8.753   8.816
  447DIO     C424981   5.542   8.659   8.722
  447DIO     C524982   5.687   8.656   8.708
  447DIO     F224983   5.742   8.572   8.618
  447DIO     C624984   5.770   8.745   8.784
  447DIO     F324985   5.904   8.741   8.770
  447DIO     C724986   5.331   8.756   8.831
  447DIO     C824987   5.253   8.632   8.857
  447DIO     C924988   5.109   8.635   8.872
  447DIO    C1024989   5.036   8.759   8.852
  447DIO    C1124990   5.109   8.884   8.834
  447DIO    C1224991   5.253   8.881   8.822
  447DIO     F424992   5.318   8.998   8.800
  447DIO     O124993   4.904   8.760   8.891
  447DIO    C1324994   4.809   8.835   8.822
  447DIO     O224995   4.809   8.887   8.707
  447DIO    C1424996   4.680   8.841   8.892
  447DIO    C1524997   4.614   8.719   8.943
  447DIO     F524998   4.677   8.600   8.936
  447DIO    C1624999   4.483   8.722   9.006
  447DIO    C1725000   4.407   8.846   9.014
  447DIO    C1825001   4.476   8.970   8.979
  447DIO    C1925002   4.608   8.967   8.918
  447DIO     F625003   4.670   9.086   8.902
  447DIO    C2025004   4.267   8.849   9.069
  447DIO     O325005   4.197   8.725   9.055
  447DIO    C2125006   4.153   8.701   8.921
  447DIO    C2225007   4.064   8.815   8.872
  447DIO    C2325008   4.145   8.944   8.887
  447DIO     O425009   4.189   8.960   9.022
  447DIO    C2425010   3.932   8.826   8.950
  447DIO    C2525011   3.841   8.703   8.946
  447DIO    C2625012   3.803   8.659   8.806
  447DIO     H125013   5.523   8.916   8.960
  447DIO     H225014   5.482   8.597   8.656
  447DIO     H325015   5.305   8.538   8.870
  447DIO     H425016   5.054   8.546   8.899
  447DIO     H525017   5.054   8.977   8.825
  447DIO     H625018   4.445   8.631   9.050
  447DIO     H725019   4.433   9.067   9.004
  447DIO     H825020   4.276   8.864   9.177
  447DIO     H925021   4.240   8.689   8.856
  447DIO    H1025022   4.101   8.605   8.920
  447DIO    H1125023   4.042   8.800   8.766
  447DIO    H1225024   4.084   9.031   8.862
  447DIO    H1325025   4.231   8.944   8.819
  447DIO    H1425026   3.952   8.850   9.055
  447DIO    H1525027   3.875   8.911   8.910
  447DIO    H1625028   3.888   8.619   8.999
  447DIO    H1725029   3.749   8.726   9.002
  447DIO    H1825030   3.759   8.742   8.749
  447DIO    H1925031   3.889   8.621   8.751
  447DIO    H2025032   3.729   8.578   8.811
  448DIO     F125033   3.808   5.389   1.338
  448DIO     C125034   3.731   5.382   1.448
  448DIO     C225035   3.587   5.392   1.434
  448DIO     C325036   3.498   5.387   1.552
  448DIO     C425037   3.563   5.370   1.684
  448DIO     C525038   3.708   5.361   1.696
  448DIO     F225039   3.763   5.341   1.817
  448DIO     C625040   3.791   5.366   1.578
  448DIO     F325041   3.925   5.359   1.590
  448DIO     C725042   3.351   5.398   1.540
  448DIO     C825043   3.274   5.494   1.623
  448DIO     C925044   3.130   5.504   1.611
  448DIO    C1025045   3.057   5.412   1.525
  448DIO    C1125046   3.130   5.322   1.437
  448DIO    C1225047   3.274   5.314   1.447
  448DIO     F425048   3.339   5.226   1.368
  448DIO     O125049   2.925   5.443   1.501
  448DIO    C1325050   2.830   5.342   1.483
  448DIO     O225051   2.829   5.220   1.512
  448DIO    C1425052   2.701   5.394   1.437
  448DIO    C1525053   2.635   5.509   1.501
  448DIO     F525054   2.698   5.576   1.600
  448DIO    C1625055   2.504   5.557   1.461
  448DIO    C1725056   2.428   5.488   1.358
  448DIO    C1825057   2.497   5.385   1.281
  448DIO    C1925058   2.629   5.338   1.320
  448DIO     F625059   2.691   5.253   1.236
  448DIO    C2025060   2.288   5.529   1.322
  448DIO     O325061   2.218   5.594   1.429
  448DIO    C2125062   2.174   5.503   1.529
  448DIO    C2225063   2.085   5.394   1.469
  448DIO    C2325064   2.166   5.328   1.358
  448DIO     O425065   2.210   5.424   1.263
  448DIO    C2425066   1.953   5.449   1.413
  448DIO    C2525067   1.862   5.522   1.513
  448DIO    C2625068   1.823   5.437   1.633
  448DIO     H125069   3.544   5.403   1.335
  448DIO     H225070   3.503   5.356   1.773
  448DIO     H325071   3.326   5.561   1.690
  448DIO     H425072   3.075   5.579   1.666
  448DIO     H525073   3.075   5.258   1.369
  448DIO     H625074   2.466   5.648   1.507
  448DIO     H725075   2.454   5.345   1.189
  448DIO     H825076   2.297   5.606   1.244
  448DIO     H925077   2.261   5.458   1.579
  448DIO    H1025078   2.121   5.560   1.606
  448DIO    H1125079   2.063   5.319   1.546
  448DIO    H1225080   2.105   5.254   1.305
  448DIO    H1325081   2.252   5.274   1.399
  448DIO    H1425082   1.972   5.518   1.329
  448DIO    H1525083   1.896   5.365   1.370
  448DIO    H1625084   1.909   5.614   1.547
  448DIO    H1725085   1.770   5.552   1.460
  448DIO    H1825086   1.780   5.342   1.602
  448DIO    H1925087   1.910   5.416   1.697
  448DIO    H2025088   1.750   5.490   1.694
  449DIO     F125089   7.213   5.930   6.356
  449DIO     C125090   7.135   6.030   6.309
  449DIO     C225091   6.991   6.013   6.307
  449DIO     C325092   6.902   6.118   6.254
  449DIO     C425093   6.968   6.242   6.205
  449DIO     C525094   7.112   6.256   6.207
  449DIO     F225095   7.167   6.372   6.165
  449DIO     C625096   7.196   6.151   6.259
  449DIO     F325097   7.329   6.165   6.260
  449DIO     C725098   6.756   6.103   6.250
  449DIO     C825099   6.679   6.128   6.127
  449DIO     C925100   6.534   6.113   6.123
  449DIO    C1025101   6.461   6.082   6.245
  449DIO    C1125102   6.534   6.049   6.367
  449DIO    C1225103   6.678   6.062   6.369
  449DIO     F425104   6.743   6.036   6.484
  449DIO     O125105   6.329   6.046   6.230
  449DIO    C1325106   6.235   6.080   6.327
  449DIO     O225107   6.234   6.165   6.420
  449DIO    C1425108   6.105   6.014   6.304
  449DIO    C1525109   6.039   6.015   6.172
  449DIO     F525110   6.102   6.068   6.065
  449DIO    C1625111   5.908   5.956   6.150
  449DIO    C1725112   5.833   5.899   6.261
  449DIO    C1825113   5.901   5.882   6.388
  449DIO    C1925114   6.033   5.939   6.410
  449DIO     F625115   6.095   5.907   6.525
  449DIO    C2025116   5.692   5.848   6.242
  449DIO     O325117   5.622   5.910   6.133
  449DIO    C2125118   5.578   6.042   6.164
  449DIO    C2225119   5.490   6.042   6.288
  449DIO    C2325120   5.570   5.977   6.400
  449DIO     O425121   5.615   5.847   6.362
  449DIO    C2425122   5.357   5.966   6.268
  449DIO    C2525123   5.266   6.018   6.156
  449DIO    C2625124   5.228   6.165   6.171
  449DIO     H125125   6.948   5.921   6.346
  449DIO     H225126   6.907   6.326   6.174
  449DIO     H325127   6.730   6.154   6.035
  449DIO     H425128   6.479   6.124   6.031
  449DIO     H525129   6.479   6.021   6.456
  449DIO     H625130   5.870   5.952   6.049
  449DIO     H725131   5.858   5.821   6.467
  449DIO     H825132   5.702   5.742   6.213
  449DIO     H925133   5.665   6.107   6.179
  449DIO    H1025134   5.526   6.081   6.077
  449DIO    H1125135   5.467   6.145   6.316
  449DIO    H1225136   5.509   5.966   6.490
  449DIO    H1325137   5.656   6.039   6.428
  449DIO    H1425138   5.377   5.860   6.248
  449DIO    H1525139   5.300   5.969   6.362
  449DIO    H1625140   5.313   6.003   6.058
  449DIO    H1725141   5.174   5.958   6.155
  449DIO    H1825142   5.184   6.184   6.270
  449DIO    H1925143   5.314   6.230   6.158
  449DIO    H2025144   5.154   6.192   6.095
  450DIO     F125145   2.130   0.356   9.662
  450DIO     C125146   2.053   0.294   9.753
  450DIO     C225147   1.908   0.309   9.745
  450DIO     C325148   1.820   0.245   9.845
  450DIO     C425149   1.885   0.162   9.949
  450DIO     C525150   2.029   0.148   9.954
  450DIO     F225151   2.085   0.069  10.048
  450DIO     C625152   2.113   0.213   9.856
  450DIO     F325153   2.247   0.201   9.862
  450DIO     C725154   1.673   0.260   9.840
  450DIO     C825155   1.596   0.299   9.960
  450DIO     C925156   1.451   0.314   9.955
  450DIO    C1025157   1.379   0.280   9.834
  450DIO    C1125158   1.451   0.248   9.712
  450DIO    C1225159   1.595   0.236   9.716
  450DIO     F425160   1.660   0.201   9.604
  450DIO     O125161   1.247   0.319   9.829
  450DIO    C1325162   1.152   0.241   9.762
  450DIO     O225163   1.151   0.121   9.724
  450DIO    C1425164   1.023   0.310   9.748
  450DIO    C1525165   0.957   0.375   9.863
  450DIO     F525166   1.019   0.382   9.983
  450DIO    C1625167   0.826   0.437   9.853
  450DIO    C1725168   0.750   0.431   9.729
  450DIO    C1825169   0.819   0.382   9.610
  450DIO    C1925170   0.951   0.321   9.620
  450DIO     F625171   1.013   0.292   9.504
  450DIO    C2025172   0.609   0.485   9.720
  450DIO     O325173   0.540   0.485   9.845
  450DIO    C2125174   0.496   0.356   9.884
  450DIO    C2225175   0.407   0.293   9.777
  450DIO    C2325176   0.488   0.294   9.647
  450DIO     O425177   0.532   0.425   9.615
  450DIO    C2425178   0.274   0.370   9.756
  450DIO    C2525179   0.184   0.380   9.880
  450DIO    C2625180   0.145   0.246   9.939
  450DIO     H125181   1.866   0.369   9.666
  450DIO     H225182   1.825   0.104  10.018
  450DIO     H325183   1.648   0.323  10.052
  450DIO     H425184   1.396   0.351  10.040
  450DIO     H525185   1.397   0.228   9.621
  450DIO     H625186   0.788   0.491   9.939
  450DIO     H725187   0.776   0.395   9.511
  450DIO     H825188   0.619   0.591   9.692
  450DIO     H925189   0.583   0.292   9.904
  450DIO    H1025190   0.443   0.365   9.979
  450DIO    H1125191   0.385   0.190   9.804
  450DIO    H1225192   0.427   0.258   9.564
  450DIO    H1325193   0.574   0.226   9.655
  450DIO    H1425194   0.294   0.471   9.721
  450DIO    H1525195   0.218   0.320   9.677
  450DIO    H1625196   0.231   0.442   9.956
  450DIO    H1725197   0.092   0.433   9.850
  450DIO    H1825198   0.101   0.180   9.864
  450DIO    H1925199   0.232   0.195   9.983
  450DIO    H2025200   0.072   0.260  10.019
  451DIO     F125201   2.136   5.888   2.533
  451DIO     C125202   2.059   5.983   2.588
  451DIO     C225203   1.915   5.975   2.573
  451DIO     C325204   1.826   6.079   2.630
  451DIO     C425205   1.891   6.189   2.704
  451DIO     C525206   2.036   6.195   2.717
  451DIO     F225207   2.091   6.295   2.789
  451DIO     C625208   2.119   6.093   2.660
  451DIO     F325209   2.253   6.100   2.672
  451DIO     C725210   1.679   6.073   2.615
  451DIO     C825211   1.602   6.189   2.566
  451DIO     C925212   1.458   6.184   2.552
  451DIO    C1025213   1.385   6.066   2.596
  451DIO    C1125214   1.458   5.947   2.637
  451DIO    C1225215   1.602   5.952   2.648
  451DIO     F425216   1.667   5.842   2.692
  451DIO     O125217   1.253   6.058   2.557
  451DIO    C1325218   1.158   5.997   2.639
  451DIO     O225219   1.157   5.968   2.762
  451DIO    C1425220   1.029   5.978   2.572
  451DIO    C1525221   0.963   6.088   2.498
  451DIO     F525222   1.026   6.206   2.482
  451DIO    C1625223   0.832   6.073   2.437
  451DIO    C1725224   0.756   5.949   2.453
  451DIO    C1825225   0.825   5.834   2.511
  451DIO    C1925226   0.957   5.849   2.571
  451DIO     F625227   1.019   5.736   2.609
  451DIO    C2025228   0.616   5.936   2.400
  451DIO     O325229   0.546   6.061   2.390
  451DIO    C2125230   0.502   6.110   2.516
  451DIO    C2225231   0.413   6.008   2.586
  451DIO    C2325232   0.494   5.878   2.596
  451DIO     O425233   0.538   5.836   2.468
  451DIO    C2425234   0.281   5.981   2.512
  451DIO    C2525235   0.190   6.103   2.492
  451DIO    C2625236   0.151   6.173   2.621
  451DIO     H125237   1.872   5.891   2.519
  451DIO     H225238   1.831   6.263   2.756
  451DIO     H325239   1.654   6.279   2.535
  451DIO     H425240   1.403   6.266   2.508
  451DIO     H525241   1.403   5.857   2.664
  451DIO     H625242   0.794   6.154   2.377
  451DIO     H725243   0.782   5.735   2.506
  451DIO     H825244   0.625   5.900   2.297
  451DIO     H925245   0.589   6.134   2.578
  451DIO    H1025246   0.449   6.204   2.499
  451DIO    H1125247   0.391   6.043   2.688
  451DIO    H1225248   0.433   5.798   2.638
  451DIO    H1325249   0.580   5.891   2.663
  451DIO    H1425250   0.300   5.938   2.413
  451DIO    H1525251   0.224   5.906   2.568
  451DIO    H1625252   0.237   6.175   2.424
  451DIO    H1725253   0.098   6.070   2.442
  451DIO    H1825254   0.108   6.103   2.693
  451DIO    H1925255   0.238   6.221   2.668
  451DIO    H2025256   0.078   6.252   2.601
  452DIO     F125257   5.688   2.144   1.931
  452DIO     C125258   5.611   2.231   1.864
  452DIO     C225259   5.467   2.214   1.866
  452DIO     C325260   5.378   2.307   1.792
  452DIO     C425261   5.443   2.417   1.718
  452DIO     C525262   5.588   2.432   1.717
  452DIO     F225263   5.643   2.536   1.652
  452DIO     C625264   5.671   2.340   1.790
  452DIO     F325265   5.805   2.354   1.788
  452DIO     C725266   5.231   2.290   1.792
  452DIO     C825267   5.154   2.289   1.665
  452DIO     C925268   5.010   2.274   1.665
  452DIO    C1025269   4.937   2.270   1.791
  452DIO    C1125270   5.010   2.263   1.917
  452DIO    C1225271   5.154   2.275   1.916
  452DIO     F425272   5.219   2.274   2.035
  452DIO     O125273   4.805   2.231   1.784
  452DIO    C1325274   4.710   2.284   1.871
  452DIO     O225275   4.709   2.387   1.944
  452DIO    C1425276   4.581   2.215   1.863
  452DIO    C1525277   4.515   2.188   1.734
  452DIO     F525278   4.578   2.218   1.618
  452DIO    C1625279   4.384   2.126   1.724
  452DIO    C1725280   4.308   2.094   1.845
  452DIO    C1825281   4.377   2.104   1.973
  452DIO    C1925282   4.509   2.164   1.982
  452DIO     F625283   4.571   2.157   2.102
  452DIO    C2025284   4.168   2.039   1.837
  452DIO     O325285   4.098   2.077   1.717
  452DIO    C2125286   4.054   2.213   1.720
  452DIO    C2225287   3.965   2.239   1.841
  452DIO    C2325288   4.046   2.199   1.965
  452DIO     O425289   4.090   2.064   1.955
  452DIO    C2425290   3.833   2.160   1.837
  452DIO    C2525291   3.742   2.188   1.717
  452DIO    C2625292   3.703   2.334   1.701
  452DIO     H125293   5.424   2.133   1.923
  452DIO     H225294   5.383   2.493   1.670
  452DIO     H325295   5.206   2.295   1.571
  452DIO     H425296   4.955   2.265   1.573
  452DIO     H525297   4.955   2.254   2.010
  452DIO     H625298   4.346   2.101   1.626
  452DIO     H725299   4.334   2.061   2.063
  452DIO     H825300   4.177   1.930   1.831
  452DIO     H925301   4.141   2.280   1.721
  452DIO    H1025302   4.001   2.233   1.627
  452DIO    H1125303   3.943   2.346   1.847
  452DIO    H1225304   3.985   2.208   2.055
  452DIO    H1325305   4.132   2.266   1.978
  452DIO    H1425306   3.852   2.053   1.840
  452DIO    H1525307   3.776   2.183   1.929
  452DIO    H1625308   3.789   2.153   1.625
  452DIO    H1725309   3.650   2.129   1.729
  452DIO    H1825310   3.660   2.374   1.793
  452DIO    H1925311   3.790   2.396   1.675
  452DIO    H2025312   3.630   2.345   1.621
  453DIO     F125313   2.168   8.210   0.612
  453DIO     C125314   2.090   8.265   0.516
  453DIO     C225315   1.946   8.250   0.525
  453DIO     C325316   1.858   8.307   0.421
  453DIO     C425317   1.923   8.381   0.311
  453DIO     C525318   2.067   8.395   0.305
  453DIO     F225319   2.123   8.466   0.205
  453DIO     C625320   2.151   8.337   0.407
  453DIO     F325321   2.285   8.349   0.400
  453DIO     C725322   1.711   8.292   0.427
  453DIO     C825323   1.634   8.244   0.310
  453DIO     C925324   1.489   8.229   0.316
  453DIO    C1025325   1.417   8.273   0.434
  453DIO    C1125326   1.489   8.314   0.553
  453DIO    C1225327   1.633   8.326   0.548
  453DIO     F425328   1.698   8.369   0.658
  453DIO     O125329   1.285   8.234   0.442
  453DIO    C1325330   1.190   8.317   0.503
  453DIO     O225331   1.189   8.439   0.532
  453DIO    C1425332   1.061   8.250   0.522
  453DIO    C1525333   0.995   8.175   0.412
  453DIO     F525334   1.057   8.160   0.294
  453DIO    C1625335   0.864   8.114   0.427
  453DIO    C1725336   0.788   8.130   0.551
  453DIO    C1825337   0.857   8.188   0.665
  453DIO    C1925338   0.988   8.248   0.651
  453DIO     F625339   1.051   8.286   0.764
  453DIO    C2025340   0.647   8.077   0.564
  453DIO     O325341   0.578   8.067   0.439
  453DIO    C2125342   0.534   8.193   0.390
  453DIO    C2225343   0.445   8.264   0.492
  453DIO    C2325344   0.526   8.273   0.622
  453DIO     O425345   0.570   8.145   0.663
  453DIO    C2425346   0.312   8.189   0.518
  453DIO    C2525347   0.222   8.169   0.396
  453DIO    C2625348   0.183   8.299   0.327
  453DIO     H125349   1.904   8.196   0.609
  453DIO     H225350   1.862   8.434   0.237
  453DIO     H325351   1.686   8.213   0.220
  453DIO     H425352   1.434   8.186   0.234
  453DIO     H525353   1.435   8.341   0.642
  453DIO     H625354   0.826   8.054   0.345
  453DIO     H725355   0.814   8.182   0.765
  453DIO     H825356   0.657   7.974   0.599
  453DIO     H925357   0.621   8.256   0.365
  453DIO    H1025358   0.481   8.176   0.296
  453DIO    H1125359   0.423   8.365   0.457
  453DIO    H1225360   0.465   8.315   0.702
  453DIO    H1325361   0.612   8.340   0.609
  453DIO    H1425362   0.332   8.090   0.562
  453DIO    H1525363   0.256   8.245   0.594
  453DIO    H1625364   0.269   8.101   0.325
  453DIO    H1725365   0.130   8.119   0.430
  453DIO    H1825366   0.139   8.370   0.397
  453DIO    H1925367   0.270   8.346   0.279
  453DIO    H2025368   0.110   8.279   0.248
  454DIO     F125369   8.261   2.977   5.459
  454DIO     C125370   8.183   3.039   5.369
  454DIO     C225371   8.039   3.024   5.376
  454DIO     C325372   7.950   3.089   5.277
  454DIO     C425373   8.016   3.171   5.173
  454DIO     C525374   8.160   3.185   5.168
  454DIO     F225375   8.215   3.265   5.074
  454DIO     C625376   8.244   3.120   5.265
  454DIO     F325377   8.377   3.133   5.259
  454DIO     C725378   7.804   3.073   5.282
  454DIO     C825379   7.727   3.034   5.162
  454DIO     C925380   7.582   3.020   5.166
  454DIO    C1025381   7.509   3.053   5.287
  454DIO    C1125382   7.582   3.085   5.409
  454DIO    C1225383   7.726   3.097   5.405
  454DIO     F425384   7.791   3.132   5.518
  454DIO     O125385   7.377   3.015   5.292
  454DIO    C1325386   7.283   3.092   5.359
  454DIO     O225387   7.282   3.211   5.398
  454DIO    C1425388   7.154   3.023   5.373
  454DIO    C1525389   7.087   2.958   5.258
  454DIO     F525390   7.150   2.952   5.138
  454DIO    C1625391   6.956   2.896   5.267
  454DIO    C1725392   6.881   2.902   5.392
  454DIO    C1825393   6.949   2.950   5.511
  454DIO    C1925394   7.081   3.011   5.501
  454DIO     F625395   7.144   3.040   5.617
  454DIO    C2025396   6.740   2.848   5.401
  454DIO     O325397   6.670   2.848   5.275
  454DIO    C2125398   6.627   2.978   5.237
  454DIO    C2225399   6.538   3.040   5.344
  454DIO    C2325400   6.618   3.039   5.474
  454DIO     O425401   6.663   2.907   5.505
  454DIO    C2425402   6.405   2.963   5.364
  454DIO    C2525403   6.314   2.953   5.241
  454DIO    C2625404   6.276   3.088   5.182
  454DIO     H125405   7.996   2.963   5.455
  454DIO     H225406   7.955   3.229   5.104
  454DIO     H325407   7.778   3.011   5.069
  454DIO     H425408   7.527   2.983   5.081
  454DIO     H525409   7.527   3.105   5.500
  454DIO     H625410   6.918   2.842   5.181
  454DIO     H725411   6.907   2.937   5.609
  454DIO     H825412   6.750   2.742   5.428
  454DIO     H925413   6.713   3.042   5.217
  454DIO    H1025414   6.574   2.968   5.142
  454DIO    H1125415   6.515   3.143   5.318
  454DIO    H1225416   6.557   3.074   5.558
  454DIO    H1325417   6.705   3.107   5.467
  454DIO    H1425418   6.425   2.861   5.400
  454DIO    H1525419   6.348   3.013   5.444
  454DIO    H1625420   6.362   2.891   5.164
  454DIO    H1725421   6.222   2.901   5.271
  454DIO    H1825422   6.232   3.153   5.258
  454DIO    H1925423   6.362   3.139   5.138
  454DIO    H2025424   6.202   3.074   5.102
  455DIO     F125425   6.380   6.278   3.894
  455DIO     C125426   6.303   6.195   3.966
  455DIO     C225427   6.159   6.211   3.963
  455DIO     C325428   6.070   6.123   4.042
  455DIO     C425429   6.135   6.017   4.122
  455DIO     C525430   6.280   6.003   4.124
  455DIO     F225431   6.335   5.902   4.194
  455DIO     C625432   6.363   6.090   4.046
  455DIO     F325433   6.497   6.077   4.048
  455DIO     C725434   5.923   6.139   4.042
  455DIO     C825435   5.846   6.147   4.168
  455DIO     C925436   5.702   6.162   4.167
  455DIO    C1025437   5.629   6.160   4.041
  455DIO    C1125438   5.702   6.160   3.915
  455DIO    C1225439   5.846   6.148   3.916
  455DIO     F425440   5.911   6.142   3.798
  455DIO     O125441   5.497   6.199   4.046
  455DIO    C1325442   5.402   6.141   3.962
  455DIO     O225443   5.401   6.035   3.895
  455DIO    C1425444   5.273   6.211   3.966
  455DIO    C1525445   5.207   6.245   4.094
  455DIO     F525446   5.270   6.221   4.211
  455DIO    C1625447   5.076   6.308   4.100
  455DIO    C1725448   5.000   6.333   3.978
  455DIO    C1825449   5.069   6.316   3.850
  455DIO    C1925450   5.201   6.255   3.845
  455DIO     F625451   5.263   6.256   3.725
  455DIO    C2025452   4.860   6.388   3.983
  455DIO     O325453   4.790   6.356   4.104
  455DIO    C2125454   4.746   6.221   4.109
  455DIO    C2225455   4.657   6.188   3.989
  455DIO    C2325456   4.738   6.221   3.864
  455DIO     O425457   4.782   6.356   3.867
  455DIO    C2425458   4.525   6.267   3.989
  455DIO    C2525459   4.434   6.246   4.111
  455DIO    C2625460   4.395   6.100   4.134
  455DIO     H125461   6.116   6.290   3.901
  455DIO     H225462   6.075   5.944   4.174
  455DIO     H325463   5.898   6.147   4.263
  455DIO     H425464   5.647   6.177   4.259
  455DIO     H525465   5.647   6.164   3.822
  455DIO     H625466   5.038   6.338   4.197
  455DIO     H725467   5.026   6.354   3.758
  455DIO     H825468   4.869   6.497   3.983
  455DIO     H925469   4.833   6.154   4.112
  455DIO    H1025470   4.693   6.206   4.203
  455DIO    H1125471   4.635   6.081   3.989
  455DIO    H1225472   4.677   6.208   3.774
  455DIO    H1325473   4.824   6.154   3.854
  455DIO    H1425474   4.544   6.374   3.980
  455DIO    H1525475   4.468   6.239   3.899
  455DIO    H1625476   4.481   6.286   4.201
  455DIO    H1725477   4.342   6.304   4.096
  455DIO    H1825478   4.352   6.056   4.044
  455DIO    H1925479   4.482   6.040   4.164
  455DIO    H2025480   4.322   6.094   4.215
  456DIO     F125481   9.815   1.133   0.208
  456DIO     C125482   9.737   1.160   0.315
  456DIO     C225483   9.593   1.165   0.299
  456DIO     C325484   9.504   1.197   0.413
  456DIO     C425485   9.570   1.221   0.543
  456DIO     C525486   9.714   1.216   0.557
  456DIO     F225487   9.769   1.235   0.678
  456DIO     C625488   9.798   1.185   0.443
  456DIO     F325489   9.932   1.182   0.457
  456DIO     C725490   9.358   1.203   0.398
  456DIO     C825491   9.281   1.320   0.447
  456DIO     C925492   9.136   1.326   0.433
  456DIO    C1025493   9.063   1.212   0.379
  456DIO    C1125494   9.136   1.099   0.323
  456DIO    C1225495   9.280   1.095   0.335
  456DIO     F425496   9.345   0.987   0.287
  456DIO     O125497   8.931   1.234   0.347
  456DIO    C1325498   8.837   1.133   0.361
  456DIO     O225499   8.836   1.025   0.426
  456DIO    C1425500   8.708   1.167   0.300
  456DIO    C1525501   8.641   1.297   0.327
  456DIO     F525502   8.704   1.391   0.400
  456DIO    C1625503   8.511   1.330   0.273
  456DIO    C1725504   8.435   1.232   0.196
  456DIO    C1825505   8.504   1.111   0.155
  456DIO    C1925506   8.635   1.078   0.207
  456DIO     F625507   8.698   0.971   0.153
  456DIO    C2025508   8.294   1.261   0.150
  456DIO     O325509   8.224   1.356   0.231
  456DIO    C2125510   8.181   1.300   0.355
  456DIO    C2225511   8.092   1.178   0.331
  456DIO    C2325512   8.173   1.080   0.246
  456DIO     O425513   8.217   1.143   0.126
  456DIO    C2425514   7.959   1.213   0.260
  456DIO    C2525515   7.868   1.312   0.333
  456DIO    C2625516   7.830   1.269   0.474
  456DIO     H125517   9.550   1.145   0.201
  456DIO     H225518   9.509   1.236   0.632
  456DIO     H325519   9.332   1.405   0.489
  456DIO     H425520   9.081   1.414   0.461
  456DIO     H525521   9.082   1.018   0.278
  456DIO     H625522   8.472   1.430   0.289
  456DIO     H725523   8.461   1.045   0.080
  456DIO     H825524   8.304   1.310   0.052
  456DIO     H925525   8.267   1.273   0.416
  456DIO    H1025526   8.128   1.378   0.410
  456DIO    H1125527   8.069   1.130   0.427
  456DIO    H1225528   8.111   0.994   0.218
  456DIO    H1325529   8.259   1.042   0.302
  456DIO    H1425530   7.979   1.253   0.160
  456DIO    H1525531   7.903   1.120   0.245
  456DIO    H1625532   7.916   1.411   0.337
  456DIO    H1725533   7.777   1.325   0.274
  456DIO    H1825534   7.786   1.169   0.474
  456DIO    H1925535   7.916   1.269   0.541
  456DIO    H2025536   7.756   1.338   0.516
  457DIO     F125537   3.138   3.994   9.056
  457DIO     C125538   3.060   4.077   8.984
  457DIO     C225539   2.916   4.060   8.987
  457DIO     C325540   2.827   4.148   8.908
  457DIO     C425541   2.893   4.254   8.828
  457DIO     C525542   3.037   4.269   8.826
  457DIO     F225543   3.092   4.369   8.755
  457DIO     C625544   3.121   4.181   8.905
  457DIO     F325545   3.254   4.195   8.902
  457DIO     C725546   2.681   4.132   8.909
  457DIO     C825547   2.604   4.124   8.783
  457DIO     C925548   2.459   4.109   8.783
  457DIO    C1025549   2.386   4.111   8.909
  457DIO    C1125550   2.459   4.112   9.035
  457DIO    C1225551   2.603   4.124   9.034
  457DIO     F425552   2.668   4.130   9.152
  457DIO     O125553   2.254   4.072   8.904
  457DIO    C1325554   2.160   4.130   8.988
  457DIO     O225555   2.159   4.237   9.055
  457DIO    C1425556   2.030   4.061   8.984
  457DIO    C1525557   1.964   4.026   8.857
  457DIO     F525558   2.027   4.050   8.739
  457DIO    C1625559   1.833   3.964   8.851
  457DIO    C1725560   1.758   3.939   8.973
  457DIO    C1825561   1.826   3.956   9.100
  457DIO    C1925562   1.958   4.017   9.106
  457DIO     F625563   2.020   4.016   9.226
  457DIO    C2025564   1.617   3.884   8.968
  457DIO     O325565   1.547   3.915   8.847
  457DIO    C2125566   1.503   4.050   8.842
  457DIO    C2225567   1.415   4.084   8.961
  457DIO    C2325568   1.495   4.051   9.087
  457DIO     O425569   1.540   3.915   9.084
  457DIO    C2425570   1.282   4.005   8.961
  457DIO    C2525571   1.191   4.026   8.840
  457DIO    C2625572   1.153   4.171   8.816
  457DIO     H125573   2.873   3.982   9.049
  457DIO     H225574   2.832   4.327   8.775
  457DIO     H325575   2.655   4.124   8.688
  457DIO     H425576   2.404   4.094   8.692
  457DIO     H525577   2.404   4.108   9.128
  457DIO     H625578   1.795   3.933   8.754
  457DIO     H725579   1.783   3.918   9.192
  457DIO     H825580   1.627   3.775   8.968
  457DIO     H925581   1.590   4.117   8.838
  457DIO    H1025582   1.451   4.065   8.747
  457DIO    H1125583   1.392   4.191   8.961
  457DIO    H1225584   1.434   4.064   9.176
  457DIO    H1325585   1.581   4.118   9.096
  457DIO    H1425586   1.302   3.897   8.971
  457DIO    H1525587   1.225   4.033   9.051
  457DIO    H1625588   1.238   3.985   8.750
  457DIO    H1725589   1.099   3.967   8.855
  457DIO    H1825590   1.109   4.215   8.906
  457DIO    H1925591   1.239   4.231   8.786
  457DIO    H2025592   1.079   4.177   8.735
  458DIO     F125593   4.276   9.562   9.001
  458DIO     C125594   4.198   9.520   9.102
  458DIO     C225595   4.054   9.533   9.092
  458DIO     C325596   3.965   9.490   9.202
  458DIO     C425597   4.031   9.430   9.321
  458DIO     C525598   4.175   9.418   9.329
  458DIO     F225599   4.231   9.359   9.437
  458DIO     C625600   4.259   9.462   9.220
  458DIO     F325601   4.393   9.451   9.228
  458DIO     C725602   3.819   9.504   9.194
  458DIO     C825603   3.742   9.567   9.304
  458DIO     C925604   3.597   9.580   9.296
  458DIO    C1025605   3.525   9.522   9.185
  458DIO    C1125606   3.597   9.466   9.072
  458DIO    C1225607   3.741   9.455   9.078
  458DIO     F425608   3.806   9.398   8.975
  458DIO     O125609   3.392   9.559   9.172
  458DIO    C1325610   3.298   9.470   9.122
  458DIO     O225611   3.297   9.345   9.109
  458DIO    C1425612   3.169   9.534   9.095
  458DIO    C1525613   3.102   9.622   9.194
  458DIO     F525614   3.165   9.652   9.310
  458DIO    C1625615   2.972   9.680   9.172
  458DIO    C1725616   2.896   9.649   9.051
  458DIO    C1825617   2.965   9.577   8.944
  458DIO    C1925618   3.096   9.520   8.966
  458DIO     F625619   3.159   9.467   8.859
  458DIO    C2025620   2.755   9.700   9.031
  458DIO     O325621   2.685   9.726   9.154
  458DIO    C2125622   2.642   9.607   9.218
  458DIO    C2225623   2.553   9.524   9.126
  458DIO    C2325624   2.634   9.498   8.999
  458DIO     O425625   2.678   9.620   8.941
  458DIO    C2425626   2.420   9.595   9.090
  458DIO    C2525627   2.329   9.630   9.209
  458DIO    C2625628   2.291   9.510   9.295
  458DIO     H125629   4.012   9.576   9.002
  458DIO     H225630   3.970   9.388   9.400
  458DIO     H325631   3.793   9.609   9.389
  458DIO     H425632   3.542   9.634   9.372
  458DIO     H525633   3.543   9.428   8.987
  458DIO     H625634   2.934   9.751   9.245
  458DIO     H725635   2.922   9.570   8.845
  458DIO     H825636   2.765   9.798   8.983
  458DIO     H925637   2.728   9.548   9.251
  458DIO    H1025638   2.589   9.635   9.310
  458DIO    H1125639   2.530   9.428   9.173
  458DIO    H1225640   2.573   9.446   8.924
  458DIO    H1325641   2.720   9.433   9.020
  458DIO    H1425642   2.440   9.687   9.035
  458DIO    H1525643   2.364   9.530   9.022
  458DIO    H1625644   2.377   9.706   9.272
  458DIO    H1725645   2.238   9.675   9.169
  458DIO    H1825646   2.247   9.430   9.234
  458DIO    H1925647   2.378   9.470   9.348
  458DIO    H2025648   2.217   9.540   9.370
  459DIO     F125649   8.265   2.189   2.271
  459DIO     C125650   8.187   2.299   2.281
  459DIO     C225651   8.043   2.285   2.271
  459DIO     C325652   7.954   2.403   2.279
  459DIO     C425653   8.020   2.534   2.299
  459DIO     C525654   8.164   2.545   2.309
  459DIO     F225655   8.219   2.666   2.332
  459DIO     C625656   8.248   2.428   2.300
  459DIO     F325657   8.382   2.440   2.308
  459DIO     C725658   7.808   2.391   2.268
  459DIO     C825659   7.731   2.476   2.175
  459DIO     C925660   7.586   2.465   2.164
  459DIO    C1025661   7.513   2.377   2.253
  459DIO    C1125662   7.586   2.286   2.341
  459DIO    C1225663   7.730   2.296   2.349
  459DIO     F425664   7.795   2.214   2.435
  459DIO     O125665   7.381   2.353   2.222
  459DIO    C1325666   7.287   2.333   2.322
  459DIO     O225667   7.286   2.358   2.445
  459DIO    C1425668   7.158   2.287   2.269
  459DIO    C1525669   7.091   2.355   2.156
  459DIO     F525670   7.154   2.456   2.091
  459DIO    C1625671   6.961   2.316   2.107
  459DIO    C1725672   6.885   2.211   2.173
  459DIO    C1825673   6.954   2.131   2.274
  459DIO    C1925674   7.085   2.169   2.322
  459DIO     F625675   7.148   2.083   2.405
  459DIO    C2025676   6.744   2.176   2.131
  459DIO     O325677   6.674   2.285   2.069
  459DIO    C2125678   6.631   2.383   2.163
  459DIO    C2225679   6.542   2.320   2.270
  459DIO    C2325680   6.623   2.207   2.333
  459DIO     O425681   6.667   2.114   2.234
  459DIO    C2425682   6.409   2.265   2.213
  459DIO    C2525683   6.318   2.367   2.144
  459DIO    C2625684   6.280   2.485   2.231
  459DIO     H125685   8.000   2.186   2.258
  459DIO     H225686   7.959   2.623   2.316
  459DIO     H325687   7.782   2.545   2.109
  459DIO     H425688   7.531   2.521   2.090
  459DIO     H525689   7.532   2.216   2.403
  459DIO     H625690   6.922   2.364   2.017
  459DIO     H725691   6.911   2.039   2.311
  459DIO     H825692   6.754   2.100   2.052
  459DIO     H925693   6.717   2.431   2.209
  459DIO    H1025694   6.578   2.461   2.108
  459DIO    H1125695   6.519   2.394   2.347
  459DIO    H1225696   6.561   2.152   2.405
  459DIO    H1325697   6.709   2.246   2.388
  459DIO    H1425698   6.429   2.183   2.142
  459DIO    H1525699   6.353   2.220   2.296
  459DIO    H1625700   6.366   2.403   2.052
  459DIO    H1725701   6.227   2.315   2.112
  459DIO    H1825702   6.236   2.451   2.326
  459DIO    H1925703   6.366   2.548   2.254
  459DIO    H2025704   6.206   2.547   2.180
  460DIO     F125705   5.312   5.746   0.867
  460DIO     C125706   5.234   5.699   0.768
  460DIO     C225707   5.090   5.698   0.785
  460DIO     C325708   5.001   5.644   0.679
  460DIO     C425709   5.067   5.596   0.555
  460DIO     C525710   5.211   5.598   0.541
  460DIO     F225711   5.266   5.557   0.425
  460DIO     C625712   5.295   5.650   0.646
  460DIO     F325713   5.428   5.651   0.632
  460DIO     C725714   4.855   5.641   0.695
  460DIO     C825715   4.778   5.517   0.669
  460DIO     C925716   4.633   5.514   0.684
  460DIO    C1025717   4.560   5.636   0.715
  460DIO    C1125718   4.633   5.757   0.748
  460DIO    C1225719   4.777   5.760   0.736
  460DIO     F425720   4.842   5.875   0.762
  460DIO     O125721   4.428   5.621   0.751
  460DIO    C1325722   4.334   5.717   0.718
  460DIO     O225723   4.333   5.810   0.633
  460DIO    C1425724   4.204   5.695   0.784
  460DIO    C1525725   4.138   5.563   0.783
  460DIO     F525726   4.201   5.456   0.728
  460DIO    C1625727   4.007   5.540   0.841
  460DIO    C1725728   3.932   5.651   0.898
  460DIO    C1825729   4.000   5.778   0.916
  460DIO    C1925730   4.132   5.800   0.858
  460DIO     F625731   4.194   5.916   0.891
  460DIO    C2025732   3.791   5.632   0.949
  460DIO     O325733   3.721   5.523   0.887
  460DIO    C2125734   3.677   5.555   0.755
  460DIO    C2225735   3.589   5.678   0.755
  460DIO    C2325736   3.669   5.791   0.821
  460DIO     O425737   3.714   5.752   0.950
  460DIO    C2425738   3.456   5.658   0.831
  460DIO    C2525739   3.365   5.546   0.779
  460DIO    C2625740   3.327   5.562   0.632
  460DIO     H125741   5.047   5.736   0.877
  460DIO     H225742   5.006   5.565   0.471
  460DIO     H325743   4.829   5.426   0.643
  460DIO     H425744   4.578   5.422   0.673
  460DIO     H525745   4.578   5.846   0.777
  460DIO     H625746   3.969   5.439   0.845
  460DIO     H725747   3.957   5.857   0.976
  460DIO     H825748   3.801   5.603   1.055
  460DIO     H925749   3.764   5.569   0.690
  460DIO    H1025750   3.625   5.467   0.716
  460DIO    H1125751   3.566   5.707   0.652
  460DIO    H1225752   3.608   5.881   0.832
  460DIO    H1325753   3.755   5.818   0.758
  460DIO    H1425754   3.476   5.638   0.938
  460DIO    H1525755   3.399   5.752   0.828
  460DIO    H1625756   3.412   5.448   0.794
  460DIO    H1725757   3.273   5.545   0.839
  460DIO    H1825758   3.283   5.660   0.613
  460DIO    H1925759   3.413   5.549   0.567
  460DIO    H2025760   3.253   5.486   0.605
  461DIO     F125761   7.251   9.287   2.264
  461DIO     C125762   7.173   9.308   2.156
  461DIO     C225763   7.029   9.297   2.168
  461DIO     C325764   6.940   9.317   2.052
  461DIO     C425765   7.006   9.351   1.923
  461DIO     C525766   7.150   9.362   1.913
  461DIO     F225767   7.205   9.397   1.796
  461DIO     C625768   7.234   9.341   2.029
  461DIO     F325769   7.367   9.350   2.018
  461DIO     C725770   6.794   9.305   2.062
  461DIO     C825771   6.717   9.221   1.968
  461DIO     C925772   6.572   9.209   1.978
  461DIO    C1025773   6.499   9.289   2.075
  461DIO    C1125774   6.572   9.366   2.174
  461DIO    C1225775   6.716   9.376   2.166
  461DIO     F425776   6.781   9.453   2.256
  461DIO     O125777   6.367   9.255   2.095
  461DIO    C1325778   6.273   9.353   2.126
  461DIO     O225779   6.272   9.478   2.113
  461DIO    C1425780   6.143   9.295   2.166
  461DIO    C1525781   6.077   9.190   2.086
  461DIO     F525782   6.140   9.136   1.979
  461DIO    C1625783   5.946   9.137   2.120
  461DIO    C1725784   5.871   9.192   2.232
  461DIO    C1825785   5.939   9.284   2.322
  461DIO    C1925786   6.071   9.336   2.288
  461DIO     F625787   6.133   9.409   2.383
  461DIO    C2025788   5.730   9.146   2.262
  461DIO     O325789   5.660   9.096   2.147
  461DIO    C2125790   5.616   9.199   2.060
  461DIO    C2225791   5.528   9.299   2.133
  461DIO    C2325792   5.608   9.350   2.252
  461DIO     O425793   5.653   9.242   2.334
  461DIO    C2425794   5.395   9.237   2.182
  461DIO    C2525795   5.304   9.179   2.073
  461DIO    C2625796   5.266   9.278   1.965
  461DIO     H125797   6.986   9.273   2.265
  461DIO     H225798   6.945   9.377   1.837
  461DIO     H325799   6.768   9.162   1.893
  461DIO     H425800   6.517   9.141   1.914
  461DIO     H525801   6.517   9.421   2.250
  461DIO     H625802   5.908   9.053   2.063
  461DIO     H725803   5.896   9.311   2.417
  461DIO     H825804   5.740   9.060   2.329
  461DIO     H925805   5.703   9.250   2.016
  461DIO    H1025806   5.564   9.153   1.976
  461DIO    H1125807   5.505   9.383   2.067
  461DIO    H1225808   5.547   9.416   2.315
  461DIO    H1325809   5.694   9.409   2.219
  461DIO    H1425810   5.415   9.158   2.256
  461DIO    H1525811   5.338   9.315   2.236
  461DIO    H1625812   5.351   9.091   2.028
  461DIO    H1725813   5.212   9.142   2.121
  461DIO    H1825814   5.222   9.369   2.008
  461DIO    H1925815   5.352   9.307   1.905
  461DIO    H2025816   5.192   9.234   1.898
  462DIO     F125817   8.197   3.960   1.885
  462DIO     C125818   8.120   3.933   1.778
  462DIO     C225819   7.976   3.929   1.794
  462DIO     C325820   7.887   3.897   1.680
  462DIO     C425821   7.952   3.874   1.549
  462DIO     C525822   8.097   3.880   1.536
  462DIO     F225823   8.152   3.862   1.414
  462DIO     C625824   8.180   3.910   1.649
  462DIO     F325825   8.314   3.913   1.636
  462DIO     C725826   7.740   3.891   1.695
  462DIO     C825827   7.663   3.775   1.645
  462DIO     C925828   7.519   3.769   1.659
  462DIO    C1025829   7.446   3.882   1.713
  462DIO    C1125830   7.519   3.994   1.770
  462DIO    C1225831   7.663   3.999   1.759
  462DIO     F425832   7.728   4.107   1.807
  462DIO     O125833   7.314   3.860   1.746
  462DIO    C1325834   7.219   3.961   1.732
  462DIO     O225835   7.218   4.069   1.668
  462DIO    C1425836   7.090   3.926   1.793
  462DIO    C1525837   7.024   3.797   1.765
  462DIO     F525838   7.087   3.703   1.691
  462DIO    C1625839   6.893   3.763   1.818
  462DIO    C1725840   6.817   3.860   1.896
  462DIO    C1825841   6.886   3.982   1.939
  462DIO    C1925842   7.018   4.015   1.887
  462DIO     F625843   7.080   4.121   1.942
  462DIO    C2025844   6.677   3.831   1.943
  462DIO     O325845   6.607   3.737   1.860
  462DIO    C2125846   6.563   3.794   1.737
  462DIO    C2225847   6.474   3.916   1.762
  462DIO    C2325848   6.555   4.013   1.848
  462DIO     O425849   6.599   3.949   1.967
  462DIO    C2425850   6.342   3.880   1.832
  462DIO    C2525851   6.251   3.781   1.758
  462DIO    C2625852   6.212   3.826   1.618
  462DIO     H125853   7.933   3.948   1.892
  462DIO     H225854   7.892   3.861   1.460
  462DIO     H325855   7.715   3.690   1.602
  462DIO     H425856   7.464   3.680   1.630
  462DIO     H525857   7.464   4.076   1.816
  462DIO     H625858   6.855   3.663   1.802
  462DIO     H725859   6.843   4.047   2.014
  462DIO     H825860   6.686   3.782   2.040
  462DIO     H925861   6.650   3.822   1.676
  462DIO    H1025862   6.510   3.717   1.681
  462DIO    H1125863   6.452   3.964   1.666
  462DIO    H1225864   6.494   4.099   1.877
  462DIO    H1325865   6.641   4.052   1.792
  462DIO    H1425866   6.361   3.840   1.932
  462DIO    H1525867   6.285   3.973   1.848
  462DIO    H1625868   6.298   3.683   1.754
  462DIO    H1725869   6.159   3.768   1.817
  462DIO    H1825870   6.169   3.926   1.619
  462DIO    H1925871   6.299   3.827   1.551
  462DIO    H2025872   6.139   3.757   1.576
  463DIO     F125873   2.328   1.317   9.886
  463DIO     C125874   2.251   1.421   9.850
  463DIO     C225875   2.107   1.404   9.847
  463DIO     C325876   2.018   1.516   9.806
  463DIO     C425877   2.083   1.644   9.771
  463DIO     C525878   2.228   1.658   9.775
  463DIO     F225879   2.283   1.777   9.747
  463DIO     C625880   2.311   1.547   9.815
  463DIO     F325881   2.445   1.561   9.818
  463DIO     C725882   1.871   1.500   9.801
  463DIO     C825883   1.794   1.540   9.681
  463DIO     C925884   1.650   1.526   9.676
  463DIO    C1025885   1.577   1.481   9.793
  463DIO    C1125886   1.650   1.434   9.910
  463DIO    C1225887   1.794   1.446   9.914
  463DIO     F425888   1.859   1.407  10.026
  463DIO     O125889   1.445   1.447   9.774
  463DIO    C1325890   1.350   1.469   9.874
  463DIO     O225891   1.349   1.543   9.976
  463DIO    C1425892   1.221   1.406   9.844
  463DIO    C1525893   1.155   1.422   9.713
  463DIO     F525894   1.218   1.488   9.613
  463DIO    C1625895   1.024   1.366   9.684
  463DIO    C1725896   0.948   1.297   9.788
  463DIO    C1825897   1.017   1.265   9.913
  463DIO    C1925898   1.149   1.320   9.941
  463DIO     F625899   1.211   1.275  10.052
  463DIO    C2025900   0.808   1.248   9.763
  463DIO     O325901   0.738   1.322   9.662
  463DIO    C2125902   0.694   1.450   9.708
  463DIO    C2225903   0.605   1.436   9.831
  463DIO    C2325904   0.686   1.359   9.935
  463DIO     O425905   0.730   1.234   9.883
  463DIO    C2425906   0.473   1.363   9.802
  463DIO    C2525907   0.382   1.427   9.697
  463DIO    C2625908   0.343   1.571   9.729
  463DIO     H125909   2.064   1.309   9.875
  463DIO     H225910   2.023   1.731   9.750
  463DIO     H325911   1.846   1.576   9.593
  463DIO     H425912   1.595   1.546   9.585
  463DIO     H525913   1.595   1.396   9.996
  463DIO     H625914   0.986   1.374   9.583
  463DIO     H725915   0.974   1.196   9.984
  463DIO     H825916   0.817   1.147   9.722
  463DIO     H925917   0.781   1.513   9.730
  463DIO    H1025918   0.641   1.499   9.626
  463DIO    H1125919   0.583   1.535   9.871
  463DIO    H1225920   0.625   1.337  10.024
  463DIO    H1325921   0.772   1.417   9.970
  463DIO    H1425922   0.492   1.259   9.771
  463DIO    H1525923   0.416   1.355   9.896
  463DIO    H1625924   0.429   1.423   9.598
  463DIO    H1725925   0.290   1.368   9.689
  463DIO    H1825926   0.300   1.579   9.829
  463DIO    H1925927   0.430   1.638   9.724
  463DIO    H2025928   0.270   1.607   9.657
  464DIO     F125929   9.747   6.197   8.591
  464DIO     C125930   9.669   6.301   8.555
  464DIO     C225931   9.525   6.284   8.552
  464DIO     C325932   9.436   6.395   8.511
  464DIO     C425933   9.502   6.523   8.476
  464DIO     C525934   9.646   6.537   8.480
  464DIO     F225935   9.702   6.657   8.452
  464DIO     C625936   9.730   6.427   8.520
  464DIO     F325937   9.864   6.441   8.523
  464DIO     C725938   9.290   6.380   8.506
  464DIO     C825939   9.213   6.419   8.386
  464DIO     C925940   9.068   6.405   8.381
  464DIO    C1025941   8.996   6.360   8.498
  464DIO    C1125942   9.068   6.314   8.615
  464DIO    C1225943   9.212   6.326   8.619
  464DIO     F425944   9.277   6.287   8.730
  464DIO     O125945   8.863   6.326   8.479
  464DIO    C1325946   8.769   6.349   8.579
  464DIO     O225947   8.768   6.422   8.681
  464DIO    C1425948   8.640   6.285   8.549
  464DIO    C1525949   8.573   6.301   8.418
  464DIO     F525950   8.636   6.367   8.318
  464DIO    C1625951   8.443   6.246   8.389
  464DIO    C1725952   8.367   6.177   8.493
  464DIO    C1825953   8.436   6.145   8.617
  464DIO    C1925954   8.567   6.199   8.646
  464DIO     F625955   8.630   6.154   8.756
  464DIO    C2025956   8.226   6.128   8.468
  464DIO     O325957   8.156   6.202   8.367
  464DIO    C2125958   8.113   6.329   8.413
  464DIO    C2225959   8.024   6.315   8.536
  464DIO    C2325960   8.105   6.238   8.640
  464DIO     O425961   8.149   6.113   8.587
  464DIO    C2425962   7.891   6.242   8.507
  464DIO    C2525963   7.800   6.307   8.402
  464DIO    C2625964   7.762   6.451   8.434
  464DIO     H125965   9.483   6.188   8.580
  464DIO     H225966   9.441   6.611   8.455
  464DIO     H325967   9.264   6.455   8.298
  464DIO     H425968   9.013   6.426   8.290
  464DIO     H525969   9.014   6.275   8.700
  464DIO     H625970   8.405   6.253   8.288
  464DIO     H725971   8.393   6.076   8.689
  464DIO     H825972   8.236   6.026   8.427
  464DIO     H925973   8.199   6.393   8.435
  464DIO    H1025974   8.060   6.378   8.331
  464DIO    H1125975   8.001   6.415   8.576
  464DIO    H1225976   8.044   6.217   8.729
  464DIO    H1325977   8.191   6.297   8.674
  464DIO    H1425978   7.911   6.139   8.475
  464DIO    H1525979   7.835   6.235   8.601
  464DIO    H1625980   7.848   6.303   8.303
  464DIO    H1725981   7.709   6.247   8.394
  464DIO    H1825982   7.718   6.458   8.534
  464DIO    H1925983   7.849   6.517   8.429
  464DIO    H2025984   7.688   6.487   8.362
  465DIO     F125985   4.249   0.351   9.613
  465DIO     C125986   4.171   0.279   9.530
  465DIO     C225987   4.027   0.282   9.547
  465DIO     C325988   3.938   0.202   9.459
  465DIO     C425989   4.004   0.122   9.353
  465DIO     C525990   4.148   0.121   9.338
  465DIO     F225991   4.204   0.050   9.238
  465DIO     C625992   4.232   0.199   9.426
  465DIO     F325993   4.366   0.196   9.412
  465DIO     C725994   3.792   0.203   9.475
  465DIO     C825995   3.715   0.077   9.483
  465DIO     C925996   3.570   0.078   9.498
  465DIO    C1025997   3.498   0.203   9.496
  465DIO    C1125998   3.570   0.329   9.496
  465DIO    C1225999   3.714   0.328   9.483
  465DIO     F426000   3.779   0.446   9.478
  465DIO     O126001   3.365   0.198   9.535
  465DIO    C1326002   3.271   0.283   9.477
  465DIO     O226003   3.270   0.350   9.370
  465DIO    C1426004   3.142   0.279   9.546
  465DIO    C1526005   3.075   0.151   9.581
  465DIO     F526006   3.138   0.034   9.557
  465DIO    C1626007   2.945   0.145   9.643
  465DIO    C1726008   2.869   0.267   9.669
  465DIO    C1826009   2.938   0.394   9.652
  465DIO    C1926010   3.069   0.400   9.590
  465DIO     F626011   3.132   0.520   9.591
  465DIO    C2026012   2.728   0.262   9.723
  465DIO     O326013   2.658   0.141   9.692
  465DIO    C2126014   2.615   0.136   9.557
  465DIO    C2226015   2.526   0.255   9.524
  465DIO    C2326016   2.607   0.381   9.557
  465DIO     O426017   2.651   0.378   9.692
  465DIO    C2426018   2.393   0.256   9.602
  465DIO    C2526019   2.302   0.134   9.581
  465DIO    C2626020   2.264   0.110   9.436
  465DIO     H126021   3.985   0.343   9.625
  465DIO     H226022   3.943   0.070   9.280
  465DIO     H326023   3.766  -0.018   9.483
  465DIO     H426024   3.515  -0.014   9.513
  465DIO     H526025   3.516   0.423   9.499
  465DIO     H626026   2.907   0.048   9.674
  465DIO     H726027   2.895   0.486   9.689
  465DIO     H826028   2.738   0.262   9.832
  465DIO     H926029   2.701   0.133   9.490
  465DIO    H1026030   2.562   0.041   9.542
  465DIO    H1126031   2.503   0.255   9.416
  465DIO    H1226032   2.546   0.471   9.543
  465DIO    H1326033   2.693   0.391   9.489
  465DIO    H1426034   2.413   0.265   9.710
  465DIO    H1526035   2.337   0.346   9.574
  465DIO    H1626036   2.350   0.044   9.622
  465DIO    H1726037   2.211   0.149   9.640
  465DIO    H1826038   2.220   0.200   9.392
  465DIO    H1926039   2.351   0.080   9.376
  465DIO    H2026040   2.190   0.029   9.430
  466DIO     F126041   4.077   6.278   1.412
  466DIO     C126042   4.000   6.388   1.406
  466DIO     C226043   3.856   6.373   1.398
  466DIO     C326044   3.767   6.491   1.389
  466DIO     C426045   3.832   6.624   1.390
  466DIO     C526046   3.977   6.636   1.398
  466DIO     F226047   4.032   6.759   1.403
  466DIO     C626048   4.060   6.519   1.406
  466DIO     F326049   4.194   6.532   1.413
  466DIO     C726050   3.620   6.477   1.380
  466DIO     C826051   3.543   6.548   1.275
  466DIO     C926052   3.399   6.536   1.266
  466DIO    C1026053   3.326   6.461   1.367
  466DIO    C1126054   3.398   6.384   1.467
  466DIO    C1226055   3.543   6.395   1.474
  466DIO     F426056   3.607   6.327   1.571
  466DIO     O126057   3.194   6.433   1.340
  466DIO    C1326058   3.099   6.427   1.442
  466DIO     O226059   3.098   6.471   1.560
  466DIO    C1426060   2.970   6.375   1.396
  466DIO    C1526061   2.904   6.426   1.274
  466DIO     F526062   2.966   6.516   1.196
  466DIO    C1626063   2.773   6.380   1.231
  466DIO    C1726064   2.697   6.285   1.312
  466DIO    C1826065   2.766   6.221   1.424
  466DIO    C1926066   2.898   6.266   1.465
  466DIO     F626067   2.960   6.192   1.560
  466DIO    C2026068   2.557   6.245   1.275
  466DIO     O326069   2.487   6.344   1.198
  466DIO    C2126070   2.443   6.454   1.277
  466DIO    C2226071   2.354   6.407   1.392
  466DIO    C2326072   2.435   6.304   1.471
  466DIO     O426073   2.479   6.199   1.386
  466DIO    C2426074   2.221   6.344   1.344
  466DIO    C2526075   2.131   6.435   1.260
  466DIO    C2626076   2.092   6.565   1.330
  466DIO     H126077   3.813   6.273   1.399
  466DIO     H226078   3.772   6.714   1.394
  466DIO     H326079   3.595   6.606   1.200
  466DIO     H426080   3.343   6.580   1.185
  466DIO     H526081   3.344   6.324   1.539
  466DIO     H626082   2.735   6.415   1.136
  466DIO     H726083   2.723   6.135   1.473
  466DIO     H826084   2.566   6.158   1.208
  466DIO     H926085   2.530   6.509   1.315
  466DIO    H1026086   2.390   6.523   1.211
  466DIO    H1126087   2.332   6.492   1.457
  466DIO    H1226088   2.374   6.260   1.550
  466DIO    H1326089   2.521   6.352   1.520
  466DIO    H1426090   2.241   6.254   1.285
  466DIO    H1526091   2.165   6.312   1.432
  466DIO    H1626092   2.178   6.458   1.164
  466DIO    H1726093   2.039   6.380   1.237
  466DIO    H1826094   2.048   6.545   1.428
  466DIO    H1926095   2.179   6.631   1.343
  466DIO    H2026096   2.019   6.619   1.270
  467DIO     F126097   4.914   1.185   9.748
  467DIO     C126098   4.836   1.081   9.785
  467DIO     C226099   4.692   1.098   9.788
  467DIO     C326100   4.603   0.987   9.830
  467DIO     C426101   4.669   0.859   9.866
  467DIO     C526102   4.813   0.845   9.862
  467DIO     F226103   4.868   0.725   9.891
  467DIO     C626104   4.897   0.955   9.821
  467DIO     F326105   5.030   0.941   9.819
  467DIO     C726106   4.457   1.002   9.835
  467DIO     C826107   4.380   0.964   9.955
  467DIO     C926108   4.235   0.978   9.960
  467DIO    C1026109   4.162   1.021   9.842
  467DIO    C1126110   4.235   1.067   9.725
  467DIO    C1226111   4.379   1.055   9.721
  467DIO     F426112   4.444   1.093   9.609
  467DIO     O126113   4.030   1.056   9.861
  467DIO    C1326114   3.936   1.033   9.762
  467DIO     O226115   3.935   0.958   9.660
  467DIO    C1426116   3.806   1.096   9.791
  467DIO    C1526117   3.740   1.081   9.922
  467DIO     F526118   3.803   1.016  10.022
  467DIO    C1626119   3.609   1.137   9.950
  467DIO    C1726120   3.534   1.205   9.846
  467DIO    C1826121   3.602   1.236   9.721
  467DIO    C1926122   3.734   1.181   9.694
  467DIO     F626123   3.796   1.225   9.582
  467DIO    C2026124   3.393   1.254   9.871
  467DIO     O326125   3.323   1.181   9.972
  467DIO    C2126126   3.279   1.053   9.927
  467DIO    C2226127   3.191   1.066   9.804
  467DIO    C2326128   3.271   1.143   9.699
  467DIO     O426129   3.316   1.268   9.751
  467DIO    C2426130   3.058   1.140   9.832
  467DIO    C2526131   2.967   1.076   9.938
  467DIO    C2626132   2.929   0.932   9.907
  467DIO     H126133   4.649   1.193   9.759
  467DIO     H226134   4.608   0.771   9.888
  467DIO     H326135   4.431   0.929  10.044
  467DIO     H426136   4.180   0.958  10.051
  467DIO     H526137   4.180   1.105   9.639
  467DIO     H626138   3.571   1.131  10.052
  467DIO     H726139   3.559   1.305   9.649
  467DIO     H826140   3.403   1.356   9.910
  467DIO     H926141   3.366   0.990   9.906
  467DIO    H1026142   3.227   1.005  10.010
  467DIO    H1126143   3.168   0.966   9.765
  467DIO    H1226144   3.210   1.163   9.611
  467DIO    H1326145   3.357   1.084   9.665
  467DIO    H1426146   3.078   1.243   9.863
  467DIO    H1526147   3.001   1.146   9.738
  467DIO    H1626148   3.014   1.081  10.037
  467DIO    H1726149   2.875   1.136   9.945
  467DIO    H1826150   2.885   0.923   9.807
  467DIO    H1926151   3.015   0.865   9.913
  467DIO    H2026152   2.855   0.897   9.980
  468DIO     F126153   2.915   5.438   6.422
  468DIO     C126154   2.838   5.343   6.477
  468DIO     C226155   2.693   5.360   6.477
  468DIO     C326156   2.605   5.258   6.538
  468DIO     C426157   2.670   5.139   6.596
  468DIO     C526158   2.814   5.124   6.594
  468DIO     F226159   2.870   5.012   6.645
  468DIO     C626160   2.898   5.225   6.535
  468DIO     F326161   3.032   5.211   6.535
  468DIO     C726162   2.458   5.274   6.540
  468DIO     C826163   2.381   5.258   6.665
  468DIO     C926164   2.236   5.273   6.667
  468DIO    C1026165   2.164   5.295   6.544
  468DIO    C1126166   2.236   5.319   6.420
  468DIO    C1226167   2.380   5.306   6.419
  468DIO     F426168   2.445   5.324   6.302
  468DIO     O126169   2.032   5.332   6.556
  468DIO    C1326170   1.937   5.291   6.462
  468DIO     O226171   1.936   5.200   6.376
  468DIO    C1426172   1.808   5.359   6.480
  468DIO    C1526173   1.742   5.368   6.612
  468DIO     F526174   1.804   5.322   6.722
  468DIO    C1626175   1.611   5.428   6.630
  468DIO    C1726176   1.535   5.476   6.515
  468DIO    C1826177   1.604   5.484   6.386
  468DIO    C1926178   1.736   5.425   6.369
  468DIO     F626179   1.798   5.449   6.252
  468DIO    C2026180   1.394   5.529   6.530
  468DIO     O326181   1.325   5.475   6.643
  468DIO    C2126182   1.281   5.341   6.622
  468DIO    C2226183   1.192   5.332   6.498
  468DIO    C2326184   1.273   5.388   6.381
  468DIO     O426185   1.317   5.521   6.410
  468DIO    C2426186   1.059   5.409   6.513
  468DIO    C2526187   0.969   5.365   6.628
  468DIO    C2626188   0.930   5.218   6.624
  468DIO     H126189   2.651   5.448   6.431
  468DIO     H226190   2.610   5.057   6.633
  468DIO     H326191   2.433   5.239   6.759
  468DIO     H426192   2.181   5.269   6.760
  468DIO     H526193   2.182   5.340   6.329
  468DIO     H626194   1.573   5.439   6.730
  468DIO     H726195   1.561   5.539   6.303
  468DIO     H826196   1.404   5.636   6.551
  468DIO     H926197   1.368   5.275   6.612
  468DIO    H1026198   1.228   5.308   6.712
  468DIO    H1126199   1.170   5.226   6.477
  468DIO    H1226200   1.212   5.392   6.291
  468DIO    H1326201   1.359   5.324   6.359
  468DIO    H1426202   1.079   5.517   6.525
  468DIO    H1526203   1.003   5.399   6.419
  468DIO    H1626204   1.016   5.388   6.725
  468DIO    H1726205   0.877   5.425   6.625
  468DIO    H1826206   0.886   5.192   6.527
  468DIO    H1926207   1.017   5.154   6.641
  468DIO    H2026208   0.857   5.196   6.702
  469DIO     F126209   9.955   6.442   2.216
  469DIO     C126210   9.877   6.527   2.147
  469DIO     C226211   9.733   6.510   2.149
  469DIO     C326212   9.644   6.601   2.073
  469DIO     C426213   9.710   6.709   1.996
  469DIO     C526214   9.854   6.724   1.995
  469DIO     F226215   9.910   6.827   1.928
  469DIO     C626216   9.938   6.634   2.070
  469DIO     F326217  10.072   6.648   2.068
  469DIO     C726218   9.498   6.585   2.073
  469DIO     C826219   9.421   6.581   1.947
  469DIO     C926220   9.276   6.565   1.947
  469DIO    C1026221   9.204   6.564   2.073
  469DIO    C1126222   9.276   6.560   2.198
  469DIO    C1226223   9.420   6.572   2.198
  469DIO     F426224   9.485   6.574   2.316
  469DIO     O126225   9.071   6.525   2.066
  469DIO    C1326226   8.977   6.580   2.152
  469DIO     O226227   8.976   6.684   2.223
  469DIO    C1426228   8.848   6.511   2.146
  469DIO    C1526229   8.781   6.481   2.017
  469DIO     F526230   8.844   6.508   1.901
  469DIO    C1626231   8.651   6.418   2.009
  469DIO    C1726232   8.575   6.389   2.130
  469DIO    C1826233   8.644   6.402   2.258
  469DIO    C1926234   8.775   6.463   2.266
  469DIO     F626235   8.838   6.459   2.386
  469DIO    C2026236   8.434   6.335   2.124
  469DIO     O326237   8.364   6.370   2.004
  469DIO    C2126238   8.321   6.505   2.003
  469DIO    C2226239   8.232   6.535   2.124
  469DIO    C2326240   8.313   6.497   2.248
  469DIO     O426241   8.357   6.362   2.241
  469DIO    C2426242   8.099   6.456   2.121
  469DIO    C2526243   8.008   6.481   2.000
  469DIO    C2626244   7.970   6.626   1.981
  469DIO     H126245   9.691   6.430   2.208
  469DIO     H226246   9.649   6.784   1.946
  469DIO     H326247   9.472   6.584   1.852
  469DIO     H426248   9.221   6.554   1.855
  469DIO     H526249   9.222   6.553   2.292
  469DIO     H626250   8.613   6.391   1.912
  469DIO     H726251   8.601   6.361   2.349
  469DIO     H826252   8.444   6.226   2.120
  469DIO     H926253   8.407   6.572   2.002
  469DIO    H1026254   8.268   6.523   1.909
  469DIO    H1126255   8.209   6.642   2.127
  469DIO    H1226256   8.252   6.508   2.338
  469DIO    H1326257   8.399   6.564   2.260
  469DIO    H1426258   8.119   6.348   2.127
  469DIO    H1526259   8.043   6.481   2.212
  469DIO    H1626260   8.056   6.443   1.909
  469DIO    H1726261   7.917   6.422   2.014
  469DIO    H1826262   7.926   6.668   2.073
  469DIO    H1926263   8.057   6.687   1.954
  469DIO    H2026264   7.896   6.636   1.901
  470DIO     F126265   9.835   7.287   4.906
  470DIO     C126266   9.758   7.211   4.826
  470DIO     C226267   9.614   7.215   4.842
  470DIO     C326268   9.525   7.132   4.758
  470DIO     C426269   9.590   7.047   4.656
  470DIO     C526270   9.735   7.045   4.642
  470DIO     F226271   9.790   6.969   4.545
  470DIO     C626272   9.818   7.127   4.726
  470DIO     F326273   9.952   7.123   4.712
  470DIO     C726274   9.378   7.133   4.774
  470DIO     C826275   9.301   7.008   4.788
  470DIO     C926276   9.157   7.009   4.803
  470DIO    C1026277   9.084   7.135   4.795
  470DIO    C1126278   9.157   7.260   4.789
  470DIO    C1226279   9.301   7.259   4.777
  470DIO     F426280   9.366   7.377   4.766
  470DIO     O126281   8.952   7.131   4.834
  470DIO    C1326282   8.857   7.213   4.772
  470DIO     O226283   8.856   7.275   4.663
  470DIO    C1426284   8.728   7.212   4.842
  470DIO    C1526285   8.662   7.086   4.882
  470DIO     F526286   8.725   6.968   4.864
  470DIO    C1626287   8.531   7.083   4.945
  470DIO    C1726288   8.455   7.206   4.965
  470DIO    C1826289   8.524   7.333   4.942
  470DIO    C1926290   8.656   7.336   4.880
  470DIO     F626291   8.718   7.455   4.875
  470DIO    C2026292   8.315   7.204   5.019
  470DIO     O326293   8.245   7.081   4.994
  470DIO    C2126294   8.201   7.070   4.859
  470DIO    C2226295   8.112   7.188   4.820
  470DIO    C2326296   8.193   7.315   4.847
  470DIO     O426297   8.237   7.319   4.983
  470DIO    C2426298   7.980   7.192   4.899
  470DIO    C2526299   7.889   7.069   4.884
  470DIO    C2626300   7.850   7.039   4.740
  470DIO     H126301   9.571   7.281   4.918
  470DIO     H226302   9.530   6.991   4.585
  470DIO     H326303   9.353   6.913   4.793
  470DIO     H426304   9.102   6.918   4.822
  470DIO     H526305   9.102   7.354   4.788
  470DIO     H626306   8.493   6.988   4.980
  470DIO     H726307   8.481   7.426   4.975
  470DIO     H826308   8.324   7.209   5.129
  470DIO     H926309   8.288   7.064   4.792
  470DIO    H1026310   8.148   6.975   4.849
  470DIO    H1126311   8.090   7.183   4.713
  470DIO    H1226312   8.132   7.404   4.830
  470DIO    H1326313   8.279   7.322   4.780
  470DIO    H1426314   7.999   7.206   5.006
  470DIO    H1526315   7.923   7.280   4.867
  470DIO    H1626316   7.936   6.981   4.929
  470DIO    H1726317   7.797   7.087   4.941
  470DIO    H1826318   7.807   7.127   4.691
  470DIO    H1926319   7.937   7.006   4.681
  470DIO    H2026320   7.777   6.958   4.737
  471DIO     F126321   7.858   2.909   2.587
  471DIO     C126322   7.780   2.921   2.478
  471DIO     C226323   7.636   2.911   2.491
  471DIO     C326324   7.547   2.921   2.373
  471DIO     C426325   7.613   2.945   2.243
  471DIO     C526326   7.757   2.955   2.232
  471DIO     F226327   7.812   2.980   2.112
  471DIO     C626328   7.841   2.943   2.349
  471DIO     F326329   7.974   2.951   2.337
  471DIO     C726330   7.401   2.910   2.385
  471DIO     C826331   7.324   2.819   2.298
  471DIO     C926332   7.179   2.808   2.309
  471DIO    C1026333   7.106   2.895   2.399
  471DIO    C1126334   7.179   2.981   2.492
  471DIO    C1226335   7.323   2.989   2.482
  471DIO     F426336   7.388   3.073   2.565
  471DIO     O126337   6.974   2.863   2.422
  471DIO    C1326338   6.880   2.963   2.444
  471DIO     O226339   6.879   3.087   2.422
  471DIO    C1426340   6.750   2.909   2.489
  471DIO    C1526341   6.684   2.797   2.418
  471DIO     F526342   6.747   2.735   2.316
  471DIO    C1626343   6.553   2.747   2.456
  471DIO    C1726344   6.478   2.811   2.563
  471DIO    C1826345   6.546   2.910   2.645
  471DIO    C1926346   6.678   2.959   2.608
  471DIO     F626347   6.740   3.040   2.696
  471DIO    C2026348   6.337   2.768   2.596
  471DIO     O326349   6.267   2.708   2.486
  471DIO    C2126350   6.223   2.805   2.391
  471DIO    C2226351   6.135   2.910   2.456
  471DIO    C2326352   6.215   2.971   2.571
  471DIO     O426353   6.260   2.870   2.661
  471DIO    C2426354   6.002   2.852   2.510
  471DIO    C2526355   5.911   2.785   2.406
  471DIO    C2626356   5.873   2.876   2.290
  471DIO     H126357   7.593   2.895   2.590
  471DIO     H226358   7.552   2.963   2.154
  471DIO     H326359   7.375   2.754   2.228
  471DIO     H426360   7.124   2.735   2.251
  471DIO     H526361   7.124   3.041   2.563
  471DIO     H626362   6.515   2.659   2.406
  471DIO     H726363   6.503   2.945   2.738
  471DIO     H826364   6.347   2.687   2.671
  471DIO     H926365   6.310   2.852   2.343
  471DIO    H1026366   6.171   2.751   2.311
  471DIO    H1126367   6.112   2.989   2.383
  471DIO    H1226368   6.154   3.042   2.628
  471DIO    H1326369   6.301   3.027   2.532
  471DIO    H1426370   6.022   2.779   2.590
  471DIO    H1526371   5.945   2.934   2.557
  471DIO    H1626372   5.958   2.694   2.368
  471DIO    H1726373   5.819   2.752   2.457
  471DIO    H1826374   5.829   2.969   2.326
  471DIO    H1926375   5.959   2.900   2.228
  471DIO    H2026376   5.799   2.826   2.227
  472DIO     F126377   2.869   3.350   9.151
  472DIO     C126378   2.791   3.281   9.237
  472DIO     C226379   2.647   3.297   9.231
  472DIO     C326380   2.558   3.224   9.325
  472DIO     C426381   2.624   3.134   9.422
  472DIO     C526382   2.768   3.119   9.426
  472DIO     F226383   2.823   3.033   9.513
  472DIO     C626384   2.852   3.192   9.334
  472DIO     F326385   2.985   3.179   9.339
  472DIO     C726386   2.412   3.240   9.321
  472DIO     C826387   2.335   3.270   9.444
  472DIO     C926388   2.190   3.284   9.440
  472DIO    C1026389   2.117   3.260   9.317
  472DIO    C1126390   2.190   3.238   9.193
  472DIO    C1226391   2.334   3.226   9.196
  472DIO     F426392   2.399   3.200   9.081
  472DIO     O126393   1.985   3.299   9.315
  472DIO    C1326394   1.891   3.227   9.242
  472DIO     O226395   1.890   3.111   9.195
  472DIO    C1426396   1.762   3.297   9.234
  472DIO    C1526397   1.695   3.353   9.354
  472DIO     F526398   1.758   3.350   9.473
  472DIO    C1626399   1.564   3.415   9.349
  472DIO    C1726400   1.489   3.419   9.224
  472DIO    C1826401   1.557   3.380   9.102
  472DIO    C1926402   1.689   3.319   9.107
  472DIO     F626403   1.752   3.298   8.989
  472DIO    C2026404   1.348   3.474   9.220
  472DIO     O326405   1.278   3.464   9.344
  472DIO    C2126406   1.235   3.332   9.373
  472DIO    C2226407   1.146   3.278   9.261
  472DIO    C2326408   1.226   3.289   9.132
  472DIO     O426409   1.271   3.422   9.111
  472DIO    C2426410   1.013   3.356   9.247
  472DIO    C2526411   0.922   3.356   9.370
  472DIO    C2626412   0.884   3.218   9.419
  472DIO     H126413   2.604   3.363   9.157
  472DIO     H226414   2.563   3.071   9.486
  472DIO     H326415   2.386   3.286   9.537
  472DIO     H426416   2.135   3.315   9.528
  472DIO     H526417   2.135   3.225   9.101
  472DIO     H626418   1.526   3.462   9.439
  472DIO     H726419   1.515   3.401   9.005
  472DIO     H826420   1.358   3.581   9.200
  472DIO     H926421   1.321   3.266   9.388
  472DIO    H1026422   1.182   3.334   9.469
  472DIO    H1126423   1.123   3.173   9.280
  472DIO    H1226424   1.165   3.260   9.046
  472DIO    H1326425   1.313   3.221   9.134
  472DIO    H1426426   1.033   3.460   9.219
  472DIO    H1526427   0.956   3.312   9.163
  472DIO    H1626428   0.970   3.412   9.452
  472DIO    H1726429   0.830   3.411   9.345
  472DIO    H1826430   0.840   3.158   9.339
  472DIO    H1926431   0.970   3.164   9.459
  472DIO    H2026432   0.810   3.225   9.500
  473DIO     F126433   4.919   4.348   5.658
  473DIO     C126434   4.842   4.452   5.694
  473DIO     C226435   4.698   4.441   5.681
  473DIO     C326436   4.609   4.554   5.717
  473DIO     C426437   4.674   4.676   5.769
  473DIO     C526438   4.819   4.685   5.781
  473DIO     F226439   4.874   4.796   5.832
  473DIO     C626440   4.902   4.573   5.744
  473DIO     F326441   5.036   4.583   5.755
  473DIO     C726442   4.462   4.545   5.704
  473DIO     C826443   4.385   4.650   5.634
  473DIO     C926444   4.241   4.642   5.621
  473DIO    C1026445   4.168   4.534   5.686
  473DIO    C1126446   4.240   4.426   5.749
  473DIO    C1226447   4.385   4.433   5.760
  473DIO     F426448   4.449   4.333   5.824
  473DIO     O126449   4.036   4.519   5.650
  473DIO    C1326450   3.941   4.475   5.742
  473DIO     O226451   3.940   4.471   5.868
  473DIO    C1426452   3.812   4.444   5.680
  473DIO    C1526453   3.746   4.537   5.586
  473DIO     F526454   3.808   4.650   5.548
  473DIO    C1626455   3.615   4.511   5.529
  473DIO    C1726456   3.539   4.393   5.569
  473DIO    C1826457   3.608   4.291   5.647
  473DIO    C1926458   3.740   4.317   5.703
  473DIO     F626459   3.802   4.213   5.763
  473DIO    C2026460   3.399   4.370   5.519
  473DIO     O326461   3.329   4.490   5.485
  473DIO    C2126462   3.285   4.562   5.600
  473DIO    C2226463   3.196   4.476   5.688
  473DIO    C2326464   3.277   4.350   5.723
  473DIO     O426465   3.321   4.285   5.604
  473DIO    C2426466   3.063   4.436   5.620
  473DIO    C2526467   2.973   4.551   5.577
  473DIO    C2626468   2.934   4.645   5.691
  473DIO     H126469   4.655   4.348   5.645
  473DIO     H226470   4.614   4.758   5.806
  473DIO     H326471   4.437   4.732   5.586
  473DIO     H426472   4.185   4.714   5.562
  473DIO     H526473   4.186   4.343   5.793
  473DIO     H626474   3.577   4.579   5.454
  473DIO     H726475   3.565   4.193   5.661
  473DIO     H826476   3.408   4.315   5.424
  473DIO     H926477   3.372   4.598   5.656
  473DIO    H1026478   3.232   4.651   5.565
  473DIO    H1126479   3.174   4.529   5.781
  473DIO    H1226480   3.216   4.280   5.779
  473DIO    H1326481   3.363   4.376   5.786
  473DIO    H1426482   3.083   4.374   5.532
  473DIO    H1526483   3.007   4.372   5.690
  473DIO    H1626484   3.020   4.609   5.497
  473DIO    H1726485   2.881   4.509   5.534
  473DIO    H1826486   2.890   4.590   5.774
  473DIO    H1926487   3.021   4.701   5.728
  473DIO    H2026488   2.861   4.718   5.656
  474DIO     F126489   6.721   7.599   6.758
  474DIO     C126490   6.644   7.616   6.649
  474DIO     C226491   6.500   7.606   6.662
  474DIO     C326492   6.411   7.622   6.545
  474DIO     C426493   6.476   7.652   6.415
  474DIO     C526494   6.621   7.662   6.405
  474DIO     F226495   6.676   7.693   6.286
  474DIO     C626496   6.704   7.645   6.521
  474DIO     F326497   6.838   7.654   6.510
  474DIO     C726498   6.265   7.610   6.556
  474DIO     C826499   6.187   7.523   6.464
  474DIO     C926500   6.043   7.512   6.475
  474DIO    C1026501   5.970   7.594   6.569
  474DIO    C1126502   6.043   7.675   6.666
  474DIO    C1226503   6.187   7.684   6.657
  474DIO     F426504   6.252   7.764   6.744
  474DIO     O126505   5.838   7.561   6.590
  474DIO    C1326506   5.743   7.660   6.618
  474DIO     O226507   5.743   7.785   6.601
  474DIO    C1426508   5.614   7.604   6.659
  474DIO    C1526509   5.548   7.496   6.584
  474DIO     F526510   5.611   7.439   6.479
  474DIO    C1626511   5.417   7.444   6.619
  474DIO    C1726512   5.341   7.503   6.729
  474DIO    C1826513   5.410   7.598   6.816
  474DIO    C1926514   5.542   7.648   6.781
  474DIO     F626515   5.604   7.725   6.873
  474DIO    C2026516   5.201   7.458   6.760
  474DIO     O326517   5.131   7.404   6.647
  474DIO    C2126518   5.087   7.504   6.556
  474DIO    C2226519   4.998   7.606   6.627
  474DIO    C2326520   5.079   7.662   6.744
  474DIO     O426521   5.123   7.556   6.829
  474DIO    C2426522   4.866   7.546   6.678
  474DIO    C2526523   4.775   7.484   6.571
  474DIO    C2626524   4.737   7.580   6.460
  474DIO     H126525   6.457   7.585   6.760
  474DIO     H226526   6.416   7.674   6.328
  474DIO     H326527   6.239   7.462   6.391
  474DIO     H426528   5.988   7.442   6.413
  474DIO     H526529   5.988   7.732   6.739
  474DIO     H626530   5.379   7.358   6.565
  474DIO     H726531   5.367   7.628   6.910
  474DIO     H826532   5.210   7.374   6.830
  474DIO     H926533   5.174   7.554   6.511
  474DIO    H1026534   5.035   7.455   6.475
  474DIO    H1126535   4.976   7.689   6.558
  474DIO    H1226536   5.018   7.730   6.804
  474DIO    H1326537   5.165   7.720   6.709
  474DIO    H1426538   4.886   7.470   6.754
  474DIO    H1526539   4.809   7.626   6.729
  474DIO    H1626540   4.822   7.395   6.528
  474DIO    H1726541   4.683   7.449   6.620
  474DIO    H1826542   4.693   7.672   6.500
  474DIO    H1926543   4.823   7.607   6.398
  474DIO    H2026544   4.663   7.533   6.394
  475DIO     F126545   3.299   1.952   3.352
  475DIO     C126546   3.221   1.874   3.274
  475DIO     C226547   3.077   1.879   3.290
  475DIO     C326548   2.988   1.793   3.208
  475DIO     C426549   3.054   1.706   3.108
  475DIO     C526550   3.198   1.703   3.094
  475DIO     F226551   3.254   1.626   2.998
  475DIO     C626552   3.282   1.788   3.176
  475DIO     F326553   3.416   1.784   3.162
  475DIO     C726554   2.842   1.795   3.224
  475DIO     C826555   2.765   1.670   3.241
  475DIO     C926556   2.620   1.672   3.256
  475DIO    C1026557   2.548   1.797   3.245
  475DIO    C1126558   2.620   1.922   3.236
  475DIO    C1226559   2.764   1.921   3.223
  475DIO     F426560   2.829   2.038   3.210
  475DIO     O126561   2.415   1.794   3.284
  475DIO    C1326562   2.321   1.875   3.220
  475DIO     O226563   2.320   1.934   3.109
  475DIO    C1426564   2.192   1.876   3.290
  475DIO    C1526565   2.126   1.751   3.333
  475DIO     F526566   2.188   1.632   3.318
  475DIO    C1626567   1.995   1.749   3.396
  475DIO    C1726568   1.919   1.872   3.413
  475DIO    C1826569   1.988   1.998   3.387
  475DIO    C1926570   2.119   2.000   3.325
  475DIO     F626571   2.182   2.119   3.317
  475DIO    C2026572   1.778   1.871   3.467
  475DIO     O326573   1.709   1.748   3.445
  475DIO    C2126574   1.665   1.734   3.310
  475DIO    C2226575   1.576   1.851   3.269
  475DIO    C2326576   1.657   1.978   3.293
  475DIO     O426577   1.701   1.985   3.428
  475DIO    C2426578   1.443   1.857   3.347
  475DIO    C2526579   1.353   1.734   3.335
  475DIO    C2626580   1.314   1.700   3.192
  475DIO     H126581   3.035   1.946   3.364
  475DIO     H226582   2.993   1.648   3.039
  475DIO     H326583   2.816   1.575   3.247
  475DIO     H426584   2.565   1.581   3.277
  475DIO     H526585   2.566   2.016   3.233
  475DIO     H626586   1.957   1.655   3.433
  475DIO     H726587   1.945   2.093   3.418
  475DIO     H826588   1.788   1.879   3.576
  475DIO     H926589   1.752   1.726   3.244
  475DIO    H1026590   1.612   1.638   3.302
  475DIO    H1126591   1.553   1.843   3.162
  475DIO    H1226592   1.596   2.067   3.273
  475DIO    H1326593   1.743   1.983   3.225
  475DIO    H1426594   1.463   1.873   3.454
  475DIO    H1526595   1.387   1.944   3.313
  475DIO    H1626596   1.400   1.647   3.382
  475DIO    H1726597   1.261   1.753   3.392
  475DIO    H1826598   1.270   1.786   3.141
  475DIO    H1926599   1.401   1.666   3.134
  475DIO    H2026600   1.240   1.619   3.191
  476DIO     F126601   2.130   4.087   9.574
  476DIO     C126602   2.053   4.022   9.663
  476DIO     C226603   1.908   4.038   9.656
  476DIO     C326604   1.820   3.970   9.754
  476DIO     C426605   1.885   3.885   9.856
  476DIO     C526606   2.029   3.871   9.860
  476DIO     F226607   2.085   3.789   9.952
  476DIO     C626608   2.113   3.939   9.764
  476DIO     F326609   2.247   3.926   9.770
  476DIO     C726610   1.673   3.986   9.749
  476DIO     C826611   1.596   4.022   9.870
  476DIO     C926612   1.451   4.037   9.866
  476DIO    C1026613   1.379   4.006   9.744
  476DIO    C1126614   1.451   3.977   9.622
  476DIO    C1226615   1.595   3.965   9.625
  476DIO     F426616   1.660   3.933   9.512
  476DIO     O126617   1.247   4.045   9.740
  476DIO    C1326618   1.152   3.969   9.671
  476DIO     O226619   1.151   3.850   9.630
  476DIO    C1426620   1.023   4.038   9.659
  476DIO    C1526621   0.957   4.100   9.776
  476DIO     F526622   1.019   4.104   9.896
  476DIO    C1626623   0.826   4.163   9.768
  476DIO    C1726624   0.750   4.159   9.643
  476DIO    C1826625   0.819   4.114   9.523
  476DIO    C1926626   0.951   4.053   9.531
  476DIO     F626627   1.013   4.027   9.414
  476DIO    C2026628   0.609   4.214   9.636
  476DIO     O326629   0.540   4.211   9.761
  476DIO    C2126630   0.496   4.080   9.796
  476DIO    C2226631   0.407   4.021   9.687
  476DIO    C2326632   0.488   4.025   9.558
  476DIO     O426633   0.532   4.157   9.529
  476DIO    C2426634   0.274   4.098   9.669
  476DIO    C2526635   0.184   4.105   9.792
  476DIO    C2626636   0.145   3.969   9.848
  476DIO     H126637   1.866   4.100   9.579
  476DIO     H226638   1.825   3.825   9.923
  476DIO     H326639   1.648   4.043   9.963
  476DIO     H426640   1.396   4.071   9.952
  476DIO     H526641   1.397   3.959   9.530
  476DIO     H626642   0.788   4.214   9.855
  476DIO     H726643   0.776   4.130   9.425
  476DIO     H826644   0.619   4.320   9.611
  476DIO     H926645   0.583   4.016   9.814
  476DIO    H1026646   0.443   4.087   9.892
  476DIO    H1126647   0.385   3.916   9.712
  476DIO    H1226648   0.427   3.991   9.473
  476DIO    H1326649   0.574   3.957   9.563
  476DIO    H1426650   0.294   4.200   9.636
  476DIO    H1526651   0.218   4.050   9.588
  476DIO    H1626652   0.231   4.165   9.871
  476DIO    H1726653   0.092   4.158   9.764
  476DIO    H1826654   0.101   3.905   9.771
  476DIO    H1926655   0.232   3.917   9.891
  476DIO    H2026656   0.072   3.981   9.928
  477DIO     F126657   3.041   8.509   6.430
  477DIO     C126658   2.964   8.523   6.321
  477DIO     C226659   2.820   8.513   6.334
  477DIO     C326660   2.731   8.525   6.217
  477DIO     C426661   2.796   8.551   6.086
  477DIO     C526662   2.941   8.561   6.076
  477DIO     F226663   2.996   8.589   5.956
  477DIO     C626664   3.024   8.548   6.192
  477DIO     F326665   3.158   8.556   6.181
  477DIO     C726666   2.584   8.514   6.228
  477DIO     C826667   2.507   8.424   6.139
  477DIO     C926668   2.363   8.413   6.150
  477DIO    C1026669   2.290   8.499   6.242
  477DIO    C1126670   2.362   8.582   6.336
  477DIO    C1226671   2.507   8.591   6.327
  477DIO     F426672   2.571   8.674   6.411
  477DIO     O126673   2.158   8.466   6.264
  477DIO    C1326674   2.063   8.565   6.289
  477DIO     O226675   2.062   8.690   6.268
  477DIO    C1426676   1.934   8.511   6.332
  477DIO    C1526677   1.868   8.400   6.259
  477DIO     F526678   1.930   8.340   6.156
  477DIO    C1626679   1.737   8.350   6.296
  477DIO    C1726680   1.661   8.412   6.404
  477DIO    C1826681   1.730   8.509   6.488
  477DIO    C1926682   1.862   8.559   6.452
  477DIO     F626683   1.924   8.638   6.542
  477DIO    C2026684   1.521   8.368   6.437
  477DIO     O326685   1.451   8.311   6.326
  477DIO    C2126686   1.407   8.408   6.232
  477DIO    C2226687   1.318   8.512   6.299
  477DIO    C2326688   1.399   8.571   6.415
  477DIO     O426689   1.443   8.469   6.503
  477DIO    C2426690   1.185   8.454   6.352
  477DIO    C2526691   1.095   8.389   6.247
  477DIO    C2626692   1.056   8.481   6.133
  477DIO     H126693   2.777   8.495   6.433
  477DIO     H226694   2.736   8.571   5.998
  477DIO     H326695   2.559   8.361   6.068
  477DIO     H426696   2.307   8.341   6.091
  477DIO     H526697   2.308   8.642   6.408
  477DIO     H626698   1.699   8.262   6.245
  477DIO     H726699   1.687   8.543   6.582
  477DIO     H826700   1.530   8.286   6.510
  477DIO     H926701   1.494   8.456   6.185
  477DIO    H1026702   1.354   8.356   6.152
  477DIO    H1126703   1.296   8.592   6.228
  477DIO    H1226704   1.338   8.641   6.473
  477DIO    H1326705   1.485   8.628   6.377
  477DIO    H1426706   1.205   8.380   6.430
  477DIO    H1526707   1.129   8.535   6.400
  477DIO    H1626708   1.142   8.298   6.207
  477DIO    H1726709   1.003   8.355   6.297
  477DIO    H1826710   1.012   8.574   6.170
  477DIO    H1926711   1.143   8.506   6.071
  477DIO    H2026712   0.983   8.432   6.068
  478DIO     F126713   3.749   9.678   6.424
  478DIO     C126714   3.672   9.715   6.527
  478DIO     C226715   3.527   9.718   6.511
  478DIO     C326716   3.439   9.761   6.621
  478DIO     C426717   3.504   9.797   6.749
  478DIO     C526718   3.648   9.793   6.763
  478DIO     F226719   3.704   9.823   6.883
  478DIO     C626720   3.732   9.752   6.653
  478DIO     F326721   3.866   9.749   6.667
  478DIO     C726722   3.292   9.766   6.606
  478DIO     C826723   3.215   9.886   6.644
  478DIO     C926724   3.070   9.891   6.630
  478DIO    C1026725   2.998   9.773   6.587
  478DIO    C1126726   3.070   9.655   6.541
  478DIO    C1226727   3.214   9.652   6.553
  478DIO     F426728   3.279   9.540   6.516
  478DIO     O126729   2.866   9.792   6.552
  478DIO    C1326730   2.771   9.692   6.576
  478DIO     O226731   2.770   9.591   6.651
  478DIO    C1426732   2.642   9.721   6.512
  478DIO    C1526733   2.576   9.852   6.527
  478DIO     F526734   2.638   9.953   6.591
  478DIO    C1626735   2.445   9.881   6.470
  478DIO    C1726736   2.369   9.776   6.403
  478DIO    C1826737   2.438   9.651   6.373
  478DIO    C1926738   2.570   9.624   6.428
  478DIO     F626739   2.632   9.512   6.384
  478DIO    C2026740   2.228   9.800   6.354
  478DIO     O326741   2.159   9.902   6.427
  478DIO    C2126742   2.115   9.858   6.555
  478DIO    C2226743   2.026   9.734   6.542
  478DIO    C2326744   2.107   9.629   6.466
  478DIO     O426745   2.151   9.681   6.341
  478DIO    C2426746   1.893   9.763   6.468
  478DIO    C2526747   1.803   9.868   6.532
  478DIO    C2626748   1.764   9.838   6.676
  478DIO     H126749   3.485   9.689   6.416
  478DIO     H226750   3.444   9.819   6.837
  478DIO     H326751   3.267   9.975   6.679
  478DIO     H426752   3.015   9.982   6.650
  478DIO     H526753   3.016   9.570   6.504
  478DIO     H626754   2.407   9.982   6.477
  478DIO     H726755   2.395   9.579   6.304
  478DIO     H826756   2.238   9.840   6.252
  478DIO     H926757   2.202   9.836   6.618
  478DIO    H1026758   2.062   9.941   6.602
  478DIO    H1126759   2.004   9.696   6.642
  478DIO    H1226760   2.046   9.541   6.446
  478DIO    H1326761   2.193   9.596   6.525
  478DIO    H1426762   1.913   9.793   6.365
  478DIO    H1526763   1.837   9.669   6.462
  478DIO    H1626764   1.850   9.967   6.527
  478DIO    H1726765   1.711   9.875   6.472
  478DIO    H1826766   1.720   9.738   6.685
  478DIO    H1926767   1.851   9.844   6.743
  478DIO    H2026768   1.691   9.911   6.711
  479DIO     F126769   5.204   4.580   0.282
  479DIO     C126770   5.126   4.665   0.352
  479DIO     C226771   4.982   4.659   0.336
  479DIO     C326772   4.893   4.752   0.410
  479DIO     C426773   4.959   4.848   0.502
  479DIO     C526774   5.103   4.852   0.516
  479DIO     F226775   5.158   4.938   0.603
  479DIO     C626776   5.187   4.760   0.442
  479DIO     F326777   5.320   4.766   0.455
  479DIO     C726778   4.747   4.748   0.394
  479DIO     C826779   4.670   4.872   0.366
  479DIO     C926780   4.525   4.868   0.351
  479DIO    C1026781   4.452   4.745   0.374
  479DIO    C1126782   4.525   4.621   0.394
  479DIO    C1226783   4.669   4.624   0.407
  479DIO     F426784   4.734   4.508   0.431
  479DIO     O126785   4.320   4.744   0.335
  479DIO    C1326786   4.226   4.670   0.405
  479DIO     O226787   4.225   4.621   0.521
  479DIO    C1426788   4.096   4.662   0.336
  479DIO    C1526789   4.030   4.783   0.282
  479DIO     F526790   4.093   4.902   0.286
  479DIO    C1626791   3.899   4.779   0.219
  479DIO    C1726792   3.824   4.654   0.214
  479DIO    C1826793   3.892   4.531   0.251
  479DIO    C1926794   4.024   4.535   0.312
  479DIO     F626795   4.086   4.417   0.331
  479DIO    C2026796   3.683   4.650   0.159
  479DIO     O326797   3.613   4.775   0.170
  479DIO    C2126798   3.569   4.802   0.303
  479DIO    C2226799   3.481   4.689   0.355
  479DIO    C2326800   3.561   4.560   0.343
  479DIO     O426801   3.606   4.540   0.209
  479DIO    C2426802   3.348   4.676   0.277
  479DIO    C2526803   3.257   4.799   0.278
  479DIO    C2626804   3.219   4.846   0.417
  479DIO     H126805   4.939   4.586   0.269
  479DIO     H226806   4.898   4.912   0.565
  479DIO     H326807   4.721   4.965   0.351
  479DIO     H426808   4.470   4.957   0.322
  479DIO     H526809   4.470   4.528   0.406
  479DIO     H626810   3.861   4.869   0.173
  479DIO     H726811   3.849   4.434   0.229
  479DIO     H826812   3.693   4.632   0.051
  479DIO     H926813   3.656   4.815   0.368
  479DIO    H1026814   3.517   4.897   0.302
  479DIO    H1126815   3.458   4.706   0.461
  479DIO    H1226816   3.500   4.473   0.370
  479DIO    H1326817   3.647   4.561   0.411
  479DIO    H1426818   3.368   4.649   0.172
  479DIO    H1526819   3.291   4.592   0.319
  479DIO    H1626820   3.304   4.882   0.223
  479DIO    H1726821   3.165   4.775   0.223
  479DIO    H1826822   3.175   4.765   0.476
  479DIO    H1926823   3.305   4.885   0.472
  479DIO    H2026824   3.145   4.927   0.411
  480DIO     F126825   4.560   1.991   7.960
  480DIO     C126826   4.483   2.089   8.009
  480DIO     C226827   4.339   2.080   7.994
  480DIO     C326828   4.250   2.187   8.045
  480DIO     C426829   4.315   2.302   8.112
  480DIO     C526830   4.460   2.309   8.125
  480DIO     F226831   4.515   2.413   8.191
  480DIO     C626832   4.543   2.203   8.074
  480DIO     F326833   4.677   2.211   8.086
  480DIO     C726834   4.104   2.180   8.031
  480DIO     C826835   4.026   2.294   7.975
  480DIO     C926836   3.882   2.287   7.961
  480DIO    C1026837   3.809   2.172   8.012
  480DIO    C1126838   3.882   2.056   8.060
  480DIO    C1226839   4.026   2.062   8.071
  480DIO     F426840   4.091   1.955   8.122
  480DIO     O126841   3.677   2.162   7.974
  480DIO    C1326842   3.582   2.106   8.059
  480DIO     O226843   3.582   2.085   8.184
  480DIO    C1426844   3.453   2.083   7.994
  480DIO    C1526845   3.387   2.188   7.913
  480DIO     F526846   3.450   2.305   7.890
  480DIO    C1626847   3.256   2.169   7.853
  480DIO    C1726848   3.180   2.047   7.877
  480DIO    C1826849   3.249   1.936   7.941
  480DIO    C1926850   3.381   1.954   8.000
  480DIO     F626851   3.443   1.843   8.045
  480DIO    C2026852   3.040   2.031   7.824
  480DIO     O326853   2.970   2.155   7.806
  480DIO    C2126854   2.926   2.211   7.930
  480DIO    C2226855   2.837   2.114   8.006
  480DIO    C2326856   2.918   1.985   8.024
  480DIO     O426857   2.962   1.935   7.898
  480DIO    C2426858   2.705   2.083   7.933
  480DIO    C2526859   2.614   2.203   7.906
  480DIO    C2626860   2.576   2.281   8.031
  480DIO     H126861   4.296   1.993   7.946
  480DIO     H226862   4.255   2.378   8.160
  480DIO     H326863   4.078   2.382   7.938
  480DIO     H426864   3.827   2.366   7.912
  480DIO     H526865   3.827   1.968   8.092
  480DIO     H626866   3.218   2.247   7.788
  480DIO     H726867   3.206   1.837   7.942
  480DIO     H826868   3.049   1.989   7.723
  480DIO     H926869   3.013   2.240   7.990
  480DIO    H1026870   2.874   2.304   7.907
  480DIO    H1126871   2.815   2.155   8.105
  480DIO    H1226872   2.857   1.907   8.071
  480DIO    H1326873   3.004   2.002   8.089
  480DIO    H1426874   2.725   2.033   7.837
  480DIO    H1526875   2.648   2.011   7.994
  480DIO    H1626876   2.661   2.271   7.834
  480DIO    H1726877   2.522   2.167   7.858
  480DIO    H1826878   2.532   2.215   8.106
  480DIO    H1926879   2.662   2.332   8.075
  480DIO    H2026880   2.502   2.358   8.006
  481DIO     F126881   2.457   8.949   1.524
  481DIO     C126882   2.379   8.879   1.609
  481DIO     C226883   2.235   8.895   1.603
  481DIO     C326884   2.146   8.822   1.696
  481DIO     C426885   2.212   8.730   1.793
  481DIO     C526886   2.356   8.716   1.796
  481DIO     F226887   2.412   8.629   1.883
  481DIO     C626888   2.440   8.790   1.705
  481DIO     F326889   2.574   8.776   1.710
  481DIO     C726890   2.000   8.837   1.692
  481DIO     C826891   1.923   8.866   1.815
  481DIO     C926892   1.778   8.881   1.812
  481DIO    C1026893   1.706   8.858   1.689
  481DIO    C1126894   1.778   8.836   1.565
  481DIO    C1226895   1.922   8.824   1.568
  481DIO     F426896   1.987   8.799   1.452
  481DIO     O126897   1.573   8.897   1.687
  481DIO    C1326898   1.479   8.826   1.614
  481DIO     O226899   1.478   8.710   1.565
  481DIO    C1426900   1.350   8.895   1.606
  481DIO    C1526901   1.284   8.950   1.726
  481DIO     F526902   1.346   8.946   1.846
  481DIO    C1626903   1.153   9.013   1.722
  481DIO    C1726904   1.077   9.017   1.597
  481DIO    C1826905   1.146   8.979   1.474
  481DIO    C1926906   1.277   8.918   1.479
  481DIO     F626907   1.340   8.899   1.361
  481DIO    C2026908   0.936   9.072   1.593
  481DIO     O326909   0.867   9.061   1.718
  481DIO    C2126910   0.823   8.929   1.745
  481DIO    C2226911   0.734   8.876   1.633
  481DIO    C2326912   0.815   8.888   1.504
  481DIO     O426913   0.859   9.022   1.483
  481DIO    C2426914   0.601   8.954   1.619
  481DIO    C2526915   0.511   8.954   1.743
  481DIO    C2626916   0.472   8.814   1.790
  481DIO     H126917   2.193   8.962   1.529
  481DIO     H226918   2.151   8.667   1.856
  481DIO     H326919   1.974   8.882   1.909
  481DIO     H426920   1.723   8.910   1.900
  481DIO     H526921   1.724   8.825   1.472
  481DIO     H626922   1.115   9.059   1.812
  481DIO     H726923   1.103   9.001   1.377
  481DIO     H826924   0.946   9.180   1.575
  481DIO     H926925   0.910   8.863   1.759
  481DIO    H1026926   0.770   8.930   1.841
  481DIO    H1126927   0.711   8.771   1.651
  481DIO    H1226928   0.754   8.860   1.417
  481DIO    H1326929   0.901   8.820   1.505
  481DIO    H1426930   0.621   9.059   1.592
  481DIO    H1526931   0.545   8.911   1.535
  481DIO    H1626932   0.558   9.009   1.825
  481DIO    H1726933   0.419   9.009   1.718
  481DIO    H1826934   0.428   8.755   1.709
  481DIO    H1926935   0.559   8.760   1.830
  481DIO    H2026936   0.398   8.821   1.871
  482DIO     F126937   6.645   7.261   8.764
  482DIO     C126938   6.567   7.360   8.716
  482DIO     C226939   6.423   7.343   8.714
  482DIO     C326940   6.334   7.448   8.661
  482DIO     C426941   6.400   7.572   8.611
  482DIO     C526942   6.544   7.586   8.614
  482DIO     F226943   6.599   7.702   8.572
  482DIO     C626944   6.628   7.481   8.666
  482DIO     F326945   6.761   7.495   8.667
  482DIO     C726946   6.188   7.433   8.657
  482DIO     C826947   6.111   7.458   8.534
  482DIO     C926948   5.966   7.443   8.530
  482DIO    C1026949   5.893   7.413   8.652
  482DIO    C1126950   5.966   7.380   8.774
  482DIO    C1226951   6.110   7.392   8.776
  482DIO     F426952   6.175   7.366   8.891
  482DIO     O126953   5.761   7.377   8.637
  482DIO    C1326954   5.667   7.410   8.734
  482DIO     O226955   5.666   7.495   8.826
  482DIO    C1426956   5.537   7.344   8.712
  482DIO    C1526957   5.471   7.345   8.579
  482DIO     F526958   5.534   7.398   8.472
  482DIO    C1626959   5.340   7.286   8.557
  482DIO    C1726960   5.265   7.229   8.668
  482DIO    C1826961   5.333   7.212   8.796
  482DIO    C1926962   5.465   7.270   8.817
  482DIO     F626963   5.527   7.238   8.933
  482DIO    C2026964   5.124   7.178   8.649
  482DIO     O326965   5.054   7.240   8.540
  482DIO    C2126966   5.010   7.372   8.571
  482DIO    C2226967   4.922   7.372   8.695
  482DIO    C2326968   5.002   7.308   8.808
  482DIO     O426969   5.047   7.178   8.770
  482DIO    C2426970   4.789   7.296   8.675
  482DIO    C2526971   4.698   7.348   8.563
  482DIO    C2626972   4.660   7.495   8.578
  482DIO     H126973   6.380   7.251   8.753
  482DIO     H226974   6.339   7.656   8.580
  482DIO     H326975   6.162   7.483   8.442
  482DIO     H426976   5.911   7.453   8.438
  482DIO     H526977   5.911   7.352   8.863
  482DIO     H626978   5.302   7.282   8.456
  482DIO     H726979   5.290   7.152   8.875
  482DIO     H826980   5.134   7.072   8.621
  482DIO     H926981   5.097   7.437   8.586
  482DIO    H1026982   4.958   7.411   8.484
  482DIO    H1126983   4.899   7.476   8.723
  482DIO    H1226984   4.941   7.297   8.898
  482DIO    H1326985   5.088   7.370   8.835
  482DIO    H1426986   4.809   7.190   8.655
  482DIO    H1526987   4.732   7.300   8.769
  482DIO    H1626988   4.745   7.333   8.465
  482DIO    H1726989   4.606   7.288   8.562
  482DIO    H1826990   4.616   7.514   8.676
  482DIO    H1926991   4.746   7.560   8.565
  482DIO    H2026992   4.586   7.522   8.502
  483DIO     F126993   3.627   3.762   6.908
  483DIO     C126994   3.549   3.653   6.917
  483DIO     C226995   3.405   3.668   6.924
  483DIO     C326996   3.316   3.550   6.937
  483DIO     C426997   3.382   3.417   6.939
  483DIO     C526998   3.526   3.405   6.931
  483DIO     F226999   3.581   3.282   6.930
  483DIO     C627000   3.610   3.522   6.920
  483DIO     F327001   3.743   3.509   6.914
  483DIO     C727002   3.170   3.564   6.946
  483DIO     C827003   3.093   3.496   7.052
  483DIO     C927004   2.948   3.509   7.060
  483DIO    C1027005   2.875   3.581   6.958
  483DIO    C1127006   2.948   3.655   6.856
  483DIO    C1227007   3.092   3.644   6.849
  483DIO     F427008   3.157   3.709   6.751
  483DIO     O127009   2.743   3.609   6.985
  483DIO    C1327010   2.649   3.612   6.882
  483DIO     O227011   2.648   3.566   6.765
  483DIO    C1427012   2.519   3.666   6.927
  483DIO    C1527013   2.453   3.618   7.050
  483DIO     F527014   2.516   3.530   7.131
  483DIO    C1627015   2.322   3.665   7.092
  483DIO    C1727016   2.247   3.758   7.008
  483DIO    C1827017   2.315   3.819   6.895
  483DIO    C1927018   2.447   3.773   6.854
  483DIO     F627019   2.509   3.844   6.758
  483DIO    C2027020   2.106   3.799   7.044
  483DIO     O327021   2.036   3.702   7.124
  483DIO    C2127022   1.992   3.590   7.048
  483DIO    C2227023   1.904   3.634   6.932
  483DIO    C2327024   1.984   3.734   6.850
  483DIO     O427025   2.029   3.842   6.932
  483DIO    C2427026   1.771   3.698   6.978
  483DIO    C2527027   1.680   3.609   7.064
  483DIO    C2627028   1.642   3.478   6.998
  483DIO     H127029   3.362   3.768   6.921
  483DIO     H227030   3.321   3.327   6.938
  483DIO     H327031   3.144   3.440   7.129
  483DIO     H427032   2.893   3.466   7.143
  483DIO     H527033   2.893   3.713   6.783
  483DIO     H627034   2.284   3.633   7.188
  483DIO     H727035   2.272   3.904   6.843
  483DIO     H827036   2.116   3.887   7.109
  483DIO     H927037   2.079   3.534   7.011
  483DIO    H1027038   1.940   3.522   7.116
  483DIO    H1127039   1.881   3.547   6.869
  483DIO    H1227040   1.923   3.776   6.770
  483DIO    H1327041   2.070   3.686   6.802
  483DIO    H1427042   1.791   3.790   7.034
  483DIO    H1527043   1.714   3.728   6.889
  483DIO    H1627044   1.727   3.589   7.161
  483DIO    H1727045   1.588   3.665   7.086
  483DIO    H1827046   1.598   3.495   6.899
  483DIO    H1927047   1.728   3.412   6.986
  483DIO    H2027048   1.568   3.425   7.059
  484DIO     F127049   9.040   5.382   3.235
  484DIO     C127050   8.962   5.443   3.326
  484DIO     C227051   8.818   5.442   3.309
  484DIO     C327052   8.729   5.510   3.407
  484DIO     C427053   8.795   5.576   3.522
  484DIO     C527054   8.939   5.575   3.537
  484DIO     F227055   8.994   5.633   3.645
  484DIO     C627056   9.023   5.509   3.440
  484DIO     F327057   9.156   5.510   3.454
  484DIO     C727058   8.583   5.511   3.391
  484DIO     C827059   8.506   5.637   3.399
  484DIO     C927060   8.361   5.638   3.384
  484DIO    C1027061   8.288   5.513   3.370
  484DIO    C1127062   8.361   5.389   3.354
  484DIO    C1227063   8.505   5.388   3.367
  484DIO     F427064   8.570   5.270   3.357
  484DIO     O127065   8.156   5.524   3.332
  484DIO    C1327066   8.062   5.432   3.379
  484DIO     O227067   8.061   5.352   3.476
  484DIO    C1427068   7.932   5.445   3.310
  484DIO    C1527069   7.866   5.576   3.293
  484DIO     F527070   7.929   5.689   3.331
  484DIO    C1627071   7.735   5.590   3.231
  484DIO    C1727072   7.660   5.472   3.191
  484DIO    C1827073   7.728   5.344   3.191
  484DIO    C1927074   7.860   5.330   3.251
  484DIO     F627075   7.922   5.212   3.235
  484DIO    C2027076   7.519   5.485   3.137
  484DIO     O327077   7.449   5.601   3.184
  484DIO    C2127078   7.405   5.588   3.318
  484DIO    C2227079   7.317   5.465   3.336
  484DIO    C2327080   7.397   5.345   3.287
  484DIO     O427081   7.442   5.365   3.153
  484DIO    C2427082   7.184   5.475   3.258
  484DIO    C2527083   7.093   5.593   3.294
  484DIO    C2627084   7.055   5.598   3.441
  484DIO     H127085   8.775   5.391   3.224
  484DIO     H227086   8.734   5.618   3.601
  484DIO     H327087   8.557   5.731   3.411
  484DIO     H427088   8.306   5.731   3.381
  484DIO     H527089   8.306   5.296   3.338
  484DIO     H627090   7.697   5.690   3.213
  484DIO     H727091   7.685   5.258   3.142
  484DIO     H827092   7.529   5.498   3.029
  484DIO     H927093   7.492   5.583   3.385
  484DIO    H1027094   7.353   5.680   3.345
  484DIO    H1127095   7.294   5.452   3.442
  484DIO    H1227096   7.336   5.254   3.289
  484DIO    H1327097   7.483   5.327   3.352
  484DIO    H1427098   7.204   5.480   3.150
  484DIO    H1527099   7.127   5.382   3.274
  484DIO    H1627100   7.140   5.688   3.265
  484DIO    H1727101   7.001   5.586   3.234
  484DIO    H1827102   7.011   5.503   3.474
  484DIO    H1927103   7.141   5.620   3.504
  484DIO    H2027104   6.981   5.677   3.458
  485DIO     F127105   2.130   4.078   0.266
  485DIO     C127106   2.053   3.971   0.293
  485DIO     C227107   1.908   3.987   0.298
  485DIO     C327108   1.820   3.873   0.329
  485DIO     C427109   1.885   3.742   0.353
  485DIO     C527110   2.029   3.729   0.348
  485DIO     F227111   2.085   3.607   0.365
  485DIO     C627112   2.113   3.842   0.317
  485DIO     F327113   2.247   3.829   0.314
  485DIO     C727114   1.673   3.888   0.336
  485DIO     C827115   1.596   3.838   0.452
  485DIO     C927116   1.451   3.852   0.458
  485DIO    C1027117   1.379   3.906   0.345
  485DIO    C1127118   1.451   3.963   0.232
  485DIO    C1227119   1.595   3.952   0.228
  485DIO     F427120   1.660   4.000   0.120
  485DIO     O127121   1.247   3.939   0.367
  485DIO    C1327122   1.152   3.925   0.266
  485DIO     O227123   1.151   3.861   0.158
  485DIO    C1427124   1.023   3.986   0.301
  485DIO    C1527125   0.957   3.959   0.430
  485DIO     F527126   1.019   3.884   0.524
  485DIO    C1627127   0.826   4.012   0.464
  485DIO    C1727128   0.750   4.089   0.366
  485DIO    C1827129   0.819   4.132   0.245
  485DIO    C1927130   0.951   4.080   0.212
  485DIO     F627131   1.013   4.134   0.105
  485DIO    C2027132   0.609   4.136   0.395
  485DIO     O327133   0.540   4.053   0.489
  485DIO    C2127134   0.496   3.930   0.433
  485DIO    C2227135   0.407   3.955   0.311
  485DIO    C2327136   0.488   4.041   0.214
  485DIO     O427137   0.532   4.160   0.277
  485DIO    C2427138   0.274   4.025   0.346
  485DIO    C2527139   0.184   3.952   0.445
  485DIO    C2627140   0.145   3.811   0.401
  485DIO     H127141   1.866   4.085   0.278
  485DIO     H227142   1.825   3.653   0.367
  485DIO     H327143   1.648   3.795   0.537
  485DIO     H427144   1.396   3.823   0.547
  485DIO     H527145   1.397   4.009   0.151
  485DIO     H627146   0.788   3.995   0.564
  485DIO     H727147   0.776   4.207   0.180
  485DIO     H827148   0.619   4.233   0.444
  485DIO     H927149   0.583   3.869   0.405
  485DIO    H1027150   0.443   3.874   0.510
  485DIO    H1127151   0.385   3.859   0.263
  485DIO    H1227152   0.427   4.069   0.128
  485DIO    H1327153   0.574   3.985   0.175
  485DIO    H1427154   0.294   4.125   0.387
  485DIO    H1527155   0.218   4.041   0.253
  485DIO    H1627156   0.231   3.947   0.544
  485DIO    H1727157   0.092   4.010   0.458
  485DIO    H1827158   0.101   3.812   0.301
  485DIO    H1927159   0.232   3.744   0.401
  485DIO    H2027160   0.072   3.769   0.470
  486DIO     F127161   3.493   8.286   2.633
  486DIO     C127162   3.415   8.316   2.738
  486DIO     C227163   3.271   8.321   2.722
  486DIO     C327164   3.182   8.356   2.835
  486DIO     C427165   3.248   8.385   2.965
  486DIO     C527166   3.392   8.380   2.978
  486DIO     F227167   3.448   8.402   3.099
  486DIO     C627168   3.476   8.345   2.866
  486DIO     F327169   3.610   8.342   2.880
  486DIO     C727170   3.036   8.362   2.820
  486DIO     C827171   2.959   8.480   2.865
  486DIO     C927172   2.814   8.486   2.851
  486DIO    C1027173   2.742   8.370   2.801
  486DIO    C1127174   2.814   8.256   2.748
  486DIO    C1227175   2.958   8.252   2.760
  486DIO     F427176   3.023   8.142   2.716
  486DIO     O127177   2.609   8.391   2.768
  486DIO    C1327178   2.515   8.290   2.785
  486DIO     O227179   2.514   8.185   2.854
  486DIO    C1427180   2.386   8.323   2.723
  486DIO    C1527181   2.319   8.454   2.746
  486DIO     F527182   2.382   8.550   2.816
  486DIO    C1627183   2.189   8.485   2.691
  486DIO    C1727184   2.113   8.385   2.617
  486DIO    C1827185   2.182   8.262   2.580
  486DIO    C1927186   2.313   8.231   2.633
  486DIO     F627187   2.376   8.123   2.582
  486DIO    C2027188   1.972   8.412   2.570
  486DIO     O327189   1.902   8.509   2.649
  486DIO    C2127190   1.859   8.457   2.774
  486DIO    C2227191   1.770   8.335   2.754
  486DIO    C2327192   1.851   8.235   2.672
  486DIO     O427193   1.895   8.293   2.550
  486DIO    C2427194   1.637   8.367   2.682
  486DIO    C2527195   1.546   8.469   2.752
  486DIO    C2627196   1.508   8.430   2.894
  486DIO     H127197   3.229   8.297   2.625
  486DIO     H227198   3.187   8.402   3.053
  486DIO     H327199   3.010   8.566   2.905
  486DIO     H427200   2.759   8.575   2.876
  486DIO     H527201   2.760   8.173   2.706
  486DIO     H627202   2.151   8.586   2.704
  486DIO     H727203   2.139   8.194   2.507
  486DIO     H827204   1.982   8.458   2.470
  486DIO     H927205   1.945   8.432   2.836
  486DIO    H1027206   1.806   8.537   2.827
  486DIO    H1127207   1.747   8.290   2.851
  486DIO    H1227208   1.790   8.147   2.646
  486DIO    H1327209   1.937   8.197   2.728
  486DIO    H1427210   1.657   8.404   2.581
  486DIO    H1527211   1.581   8.274   2.670
  486DIO    H1627212   1.594   8.568   2.753
  486DIO    H1727213   1.455   8.480   2.693
  486DIO    H1827214   1.464   8.330   2.897
  486DIO    H1927215   1.595   8.432   2.961
  486DIO    H2027216   1.434   8.501   2.933
  487DIO     F127217   9.022   6.333   3.348
  487DIO     C127218   8.945   6.346   3.457
  487DIO     C227219   8.801   6.353   3.442
  487DIO     C327220   8.712   6.370   3.559
  487DIO     C427221   8.777   6.377   3.692
  487DIO     C527222   8.922   6.370   3.704
  487DIO     F227223   8.977   6.373   3.827
  487DIO     C627224   9.005   6.354   3.588
  487DIO     F327225   9.139   6.349   3.601
  487DIO     C727226   8.566   6.378   3.545
  487DIO     C827227   8.488   6.487   3.609
  487DIO     C927228   8.344   6.495   3.596
  487DIO    C1027229   8.271   6.389   3.528
  487DIO    C1127230   8.344   6.285   3.458
  487DIO    C1227231   8.488   6.279   3.469
  487DIO     F427232   8.553   6.177   3.407
  487DIO     O127233   8.139   6.415   3.498
  487DIO    C1327234   8.044   6.313   3.499
  487DIO     O227235   8.044   6.198   3.550
  487DIO    C1427236   7.915   6.355   3.444
  487DIO    C1527237   7.849   6.480   3.487
  487DIO     F527238   7.912   6.564   3.572
  487DIO    C1627239   7.718   6.520   3.438
  487DIO    C1727240   7.642   6.433   3.349
  487DIO    C1827241   7.711   6.318   3.292
  487DIO    C1927242   7.843   6.279   3.340
  487DIO     F627243   7.905   6.180   3.272
  487DIO    C2027244   7.502   6.468   3.306
  487DIO     O327245   7.432   6.551   3.400
  487DIO    C2127246   7.388   6.479   3.515
  487DIO    C2227247   7.299   6.362   3.476
  487DIO    C2327248   7.380   6.276   3.378
  487DIO     O427249   7.424   6.353   3.267
  487DIO    C2427250   7.167   6.405   3.410
  487DIO    C2527251   7.076   6.495   3.495
  487DIO    C2627252   7.038   6.433   3.629
  487DIO     H127253   8.758   6.345   3.342
  487DIO     H227254   8.717   6.380   3.782
  487DIO     H327255   8.540   6.566   3.662
  487DIO     H427256   8.289   6.579   3.635
  487DIO     H527257   8.289   6.209   3.403
  487DIO     H627258   7.680   6.617   3.466
  487DIO     H727259   7.668   6.262   3.209
  487DIO     H827260   7.511   6.528   3.216
  487DIO     H927261   7.475   6.445   3.572
  487DIO    H1027262   7.336   6.549   3.580
  487DIO    H1127263   7.277   6.302   3.565
  487DIO    H1227264   7.319   6.194   3.339
  487DIO    H1327265   7.466   6.230   3.429
  487DIO    H1427266   7.187   6.458   3.316
  487DIO    H1527267   7.110   6.315   3.383
  487DIO    H1627268   7.123   6.592   3.512
  487DIO    H1727269   6.984   6.515   3.438
  487DIO    H1827270   6.994   6.334   3.616
  487DIO    H1927271   7.124   6.425   3.695
  487DIO    H2027272   6.964   6.497   3.679
  488DIO     F127273   4.523   7.854   3.868
  488DIO     C127274   4.445   7.922   3.782
  488DIO     C227275   4.301   7.906   3.788
  488DIO     C327276   4.213   7.977   3.694
  488DIO     C427277   4.278   8.067   3.595
  488DIO     C527278   4.422   8.081   3.591
  488DIO     F227279   4.478   8.166   3.503
  488DIO     C627280   4.506   8.009   3.684
  488DIO     F327281   4.640   8.022   3.679
  488DIO     C727282   4.066   7.962   3.697
  488DIO     C827283   3.989   7.930   3.575
  488DIO     C927284   3.844   7.916   3.579
  488DIO    C1027285   3.772   7.942   3.702
  488DIO    C1127286   3.844   7.965   3.825
  488DIO    C1227287   3.988   7.978   3.822
  488DIO     F427288   4.053   8.005   3.937
  488DIO     O127289   3.640   7.902   3.704
  488DIO    C1327290   3.545   7.975   3.776
  488DIO     O227291   3.544   8.092   3.822
  488DIO    C1427292   3.416   7.906   3.785
  488DIO    C1527293   3.350   7.848   3.666
  488DIO     F527294   3.412   7.850   3.547
  488DIO    C1627295   3.219   7.786   3.672
  488DIO    C1727296   3.143   7.784   3.797
  488DIO    C1827297   3.212   7.825   3.918
  488DIO    C1927298   3.343   7.886   3.913
  488DIO     F627299   3.406   7.908   4.030
  488DIO    C2027300   3.002   7.729   3.802
  488DIO     O327301   2.933   7.737   3.677
  488DIO    C2127302   2.889   7.869   3.647
  488DIO    C2227303   2.800   7.924   3.758
  488DIO    C2327304   2.881   7.915   3.887
  488DIO     O427305   2.925   7.782   3.910
  488DIO    C2427306   2.667   7.847   3.773
  488DIO    C2527307   2.577   7.844   3.650
  488DIO    C2627308   2.538   7.983   3.599
  488DIO     H127309   4.259   7.841   3.863
  488DIO     H227310   4.217   8.129   3.530
  488DIO     H327311   4.041   7.913   3.482
  488DIO     H427312   3.789   7.884   3.491
  488DIO     H527313   3.790   7.979   3.918
  488DIO     H627314   3.181   7.738   3.583
  488DIO     H727315   3.169   7.805   4.016
  488DIO     H827316   3.012   7.622   3.823
  488DIO     H927317   2.976   7.934   3.631
  488DIO    H1027318   2.836   7.866   3.551
  488DIO    H1127319   2.778   8.029   3.738
  488DIO    H1227320   2.820   7.945   3.973
  488DIO    H1327321   2.967   7.983   3.884
  488DIO    H1427322   2.687   7.743   3.802
  488DIO    H1527323   2.611   7.891   3.856
  488DIO    H1627324   2.624   7.788   3.569
  488DIO    H1727325   2.485   7.790   3.675
  488DIO    H1827326   2.494   8.043   3.679
  488DIO    H1927327   2.625   8.036   3.558
  488DIO    H2027328   2.465   7.974   3.518
  489DIO     F127329   2.130   8.451   4.930
  489DIO     C127330   2.053   8.559   4.952
  489DIO     C227331   1.908   8.547   4.940
  489DIO     C327332   1.820   8.663   4.961
  489DIO     C427333   1.885   8.792   4.996
  489DIO     C527334   2.029   8.801   5.007
  489DIO     F227335   2.085   8.919   5.043
  489DIO     C627336   2.113   8.686   4.985
  489DIO     F327337   2.247   8.697   4.994
  489DIO     C727338   1.673   8.653   4.949
  489DIO     C827339   1.596   8.748   4.865
  489DIO     C927340   1.451   8.738   4.854
  489DIO    C1027341   1.379   8.640   4.933
  489DIO    C1127342   1.451   8.540   5.010
  489DIO    C1227343   1.595   8.549   5.019
  489DIO     F427344   1.660   8.459   5.096
  489DIO     O127345   1.247   8.620   4.899
  489DIO    C1327346   1.152   8.589   4.996
  489DIO     O227347   1.151   8.601   5.121
  489DIO    C1427348   1.023   8.549   4.939
  489DIO    C1527349   0.957   8.629   4.833
  489DIO     F527350   1.019   8.737   4.781
  489DIO    C1627351   0.826   8.596   4.780
  489DIO    C1727352   0.750   8.484   4.835
  489DIO    C1827353   0.819   8.394   4.926
  489DIO    C1927354   0.951   8.426   4.978
  489DIO     F627355   1.013   8.331   5.051
  489DIO    C2027356   0.609   8.454   4.789
  489DIO     O327357   0.540   8.569   4.739
  489DIO    C2127358   0.496   8.656   4.843
  489DIO    C2227359   0.407   8.582   4.943
  489DIO    C2327360   0.488   8.462   4.993
  489DIO     O427361   0.532   8.381   4.885
  489DIO    C2427362   0.274   8.533   4.880
  489DIO    C2527363   0.184   8.642   4.823
  489DIO    C2627364   0.145   8.750   4.923
  489DIO     H127365   1.866   8.450   4.916
  489DIO     H227366   1.825   8.878   5.022
  489DIO     H327367   1.648   8.823   4.807
  489DIO     H427368   1.396   8.802   4.786
  489DIO     H527369   1.397   8.464   5.064
  489DIO     H627370   0.788   8.654   4.697
  489DIO     H727371   0.776   8.298   4.953
  489DIO     H827372   0.619   8.387   4.702
  489DIO     H927373   0.583   8.699   4.894
  489DIO    H1027374   0.443   8.740   4.797
  489DIO    H1127375   0.385   8.647   5.027
  489DIO    H1227376   0.427   8.400   5.059
  489DIO    H1327377   0.574   8.496   5.052
  489DIO    H1427378   0.294   8.460   4.801
  489DIO    H1527379   0.218   8.479   4.958
  489DIO    H1627380   0.231   8.689   4.735
  489DIO    H1727381   0.092   8.595   4.786
  489DIO    H1827382   0.101   8.706   5.013
  489DIO    H1927383   0.232   8.810   4.952
  489DIO    H2027384   0.072   8.818   4.878
  490DIO     F127385   2.584   4.436   0.280
  490DIO     C127386   2.507   4.543   0.304
  490DIO     C227387   2.362   4.531   0.293
  490DIO     C327388   2.274   4.647   0.316
  490DIO     C427389   2.339   4.775   0.353
  490DIO     C527390   2.483   4.784   0.364
  490DIO     F227391   2.539   4.901   0.403
  490DIO     C627392   2.567   4.669   0.340
  490DIO     F327393   2.701   4.680   0.350
  490DIO     C727394   2.127   4.637   0.304
  490DIO     C827395   2.050   4.733   0.222
  490DIO     C927396   1.905   4.724   0.210
  490DIO    C1027397   1.833   4.624   0.287
  490DIO    C1127398   1.905   4.523   0.362
  490DIO    C1227399   2.049   4.531   0.372
  490DIO     F427400   2.114   4.440   0.446
  490DIO     O127401   1.701   4.605   0.253
  490DIO    C1327402   1.606   4.572   0.349
  490DIO     O227403   1.605   4.581   0.475
  490DIO    C1427404   1.477   4.534   0.291
  490DIO    C1527405   1.411   4.616   0.188
  490DIO     F527406   1.473   4.724   0.137
  490DIO    C1627407   1.280   4.583   0.134
  490DIO    C1727408   1.204   4.470   0.186
  490DIO    C1827409   1.273   4.378   0.276
  490DIO    C1927410   1.405   4.410   0.328
  490DIO     F627411   1.467   4.313   0.399
  490DIO    C2027412   1.063   4.442   0.139
  490DIO     O327413   0.994   4.558   0.092
  490DIO    C2127414   0.950   4.642   0.198
  490DIO    C2227415   0.861   4.566   0.296
  490DIO    C2327416   0.942   4.446   0.344
  490DIO     O427417   0.986   4.367   0.234
  490DIO    C2427418   0.728   4.519   0.233
  490DIO    C2527419   0.638   4.629   0.177
  490DIO    C2627420   0.599   4.734   0.279
  490DIO     H127421   2.320   4.435   0.267
  490DIO     H227422   2.279   4.860   0.381
  490DIO     H327423   2.102   4.810   0.166
  490DIO     H427424   1.850   4.789   0.144
  490DIO     H527425   1.851   4.446   0.415
  490DIO     H627426   1.242   4.643   0.052
  490DIO     H727427   1.230   4.282   0.300
  490DIO     H827428   1.073   4.377   0.052
  490DIO     H927429   1.037   4.685   0.250
  490DIO    H1027430   0.897   4.727   0.154
  490DIO    H1127431   0.839   4.630   0.382
  490DIO    H1227432   0.881   4.381   0.408
  490DIO    H1327433   1.028   4.478   0.404
  490DIO    H1427434   0.748   4.447   0.152
  490DIO    H1527435   0.672   4.463   0.309
  490DIO    H1627436   0.685   4.677   0.091
  490DIO    H1727437   0.546   4.582   0.139
  490DIO    H1827438   0.555   4.689   0.369
  490DIO    H1927439   0.686   4.794   0.310
  490DIO    H2027440   0.526   4.803   0.237
  491DIO     F127441   7.865   3.298   0.750
  491DIO     C127442   7.788   3.407   0.762
  491DIO     C227443   7.644   3.394   0.752
  491DIO     C327444   7.555   3.512   0.762
  491DIO     C427445   7.620   3.643   0.784
  491DIO     C527446   7.765   3.653   0.794
  491DIO     F227447   7.820   3.774   0.819
  491DIO     C627448   7.848   3.536   0.783
  491DIO     F327449   7.982   3.548   0.792
  491DIO     C727450   7.409   3.500   0.750
  491DIO     C827451   7.331   3.587   0.658
  491DIO     C927452   7.187   3.576   0.648
  491DIO    C1027453   7.114   3.486   0.736
  491DIO    C1127454   7.187   3.394   0.822
  491DIO    C1227455   7.331   3.403   0.830
  491DIO     F427456   7.396   3.320   0.915
  491DIO     O127457   6.982   3.463   0.704
  491DIO    C1327458   6.887   3.441   0.804
  491DIO     O227459   6.887   3.464   0.927
  491DIO    C1427460   6.758   3.396   0.750
  491DIO    C1527461   6.692   3.466   0.638
  491DIO     F527462   6.755   3.568   0.575
  491DIO    C1627463   6.561   3.428   0.588
  491DIO    C1727464   6.485   3.321   0.653
  491DIO    C1827465   6.554   3.240   0.752
  491DIO    C1927466   6.686   3.277   0.801
  491DIO     F627467   6.748   3.189   0.882
  491DIO    C2027468   6.345   3.288   0.609
  491DIO     O327469   6.275   3.397   0.550
  491DIO    C2127470   6.231   3.493   0.645
  491DIO    C2227471   6.142   3.429   0.751
  491DIO    C2327472   6.223   3.315   0.812
  491DIO     O427473   6.267   3.224   0.712
  491DIO    C2427474   6.010   3.375   0.693
  491DIO    C2527475   5.919   3.478   0.626
  491DIO    C2627476   5.881   3.594   0.715
  491DIO     H127477   7.601   3.295   0.737
  491DIO     H227478   7.560   3.731   0.802
  491DIO     H327479   7.383   3.656   0.594
  491DIO     H427480   7.132   3.633   0.575
  491DIO     H527481   7.132   3.323   0.883
  491DIO     H627482   6.523   3.477   0.500
  491DIO     H727483   6.511   3.147   0.788
  491DIO     H827484   6.354   3.213   0.530
  491DIO     H927485   6.318   3.541   0.692
  491DIO    H1027486   6.179   3.573   0.591
  491DIO    H1127487   6.120   3.502   0.829
  491DIO    H1227488   6.162   3.258   0.884
  491DIO    H1327489   6.309   3.353   0.868
  491DIO    H1427490   6.030   3.294   0.621
  491DIO    H1527491   5.953   3.328   0.775
  491DIO    H1627492   5.966   3.516   0.534
  491DIO    H1727493   5.827   3.427   0.593
  491DIO    H1827494   5.837   3.559   0.809
  491DIO    H1927495   5.967   3.657   0.739
  491DIO    H2027496   5.807   3.658   0.665
  492DIO     F127497   3.450   8.893   0.208
  492DIO     C127498   3.373   8.784   0.226
  492DIO     C227499   3.228   8.800   0.232
  492DIO     C327500   3.140   8.684   0.254
  492DIO     C427501   3.205   8.552   0.267
  492DIO     C527502   3.349   8.539   0.261
  492DIO     F227503   3.405   8.416   0.269
  492DIO     C627504   3.433   8.654   0.240
  492DIO     F327505   3.567   8.641   0.235
  492DIO     C727506   2.993   8.698   0.262
  492DIO     C827507   2.916   8.639   0.374
  492DIO     C927508   2.771   8.653   0.381
  492DIO    C1027509   2.699   8.716   0.272
  492DIO    C1127510   2.771   8.781   0.165
  492DIO    C1227511   2.915   8.770   0.159
  492DIO     F427512   2.980   8.827   0.055
  492DIO     O127513   2.567   8.746   0.297
  492DIO    C1327514   2.472   8.741   0.195
  492DIO     O227515   2.471   8.685   0.082
  492DIO    C1427516   2.343   8.798   0.234
  492DIO    C1527517   2.277   8.761   0.361
  492DIO     F527518   2.339   8.680   0.449
  492DIO    C1627519   2.146   8.811   0.399
  492DIO    C1727520   2.070   8.897   0.308
  492DIO    C1827521   2.139   8.948   0.190
  492DIO    C1927522   2.271   8.899   0.154
  492DIO     F627523   2.333   8.962   0.052
  492DIO    C2027524   1.929   8.941   0.341
  492DIO     O327525   1.860   8.851   0.428
  492DIO    C2127526   1.816   8.733   0.362
  492DIO    C2227527   1.727   8.767   0.242
  492DIO    C2327528   1.808   8.860   0.152
  492DIO     O427529   1.852   8.974   0.225
  492DIO    C2427530   1.594   8.834   0.283
  492DIO    C2527531   1.504   8.753   0.376
  492DIO    C2627532   1.465   8.617   0.321
  492DIO     H127533   3.186   8.899   0.220
  492DIO     H227534   3.145   8.462   0.274
  492DIO     H327535   2.968   8.590   0.455
  492DIO     H427536   2.716   8.617   0.467
  492DIO     H527537   2.717   8.833   0.087
  492DIO     H627538   2.108   8.787   0.497
  492DIO     H727539   2.096   9.028   0.131
  492DIO     H827540   1.939   9.034   0.398
  492DIO     H927541   1.903   8.674   0.329
  492DIO    H1027542   1.763   8.671   0.435
  492DIO    H1127543   1.705   8.675   0.186
  492DIO    H1227544   1.747   8.896   0.069
  492DIO    H1327545   1.894   8.808   0.109
  492DIO    H1427546   1.614   8.931   0.331
  492DIO    H1527547   1.538   8.857   0.192
  492DIO    H1627548   1.551   8.741   0.474
  492DIO    H1727549   1.412   8.811   0.394
  492DIO    H1827550   1.421   8.625   0.221
  492DIO    H1927551   1.552   8.550   0.315
  492DIO    H2027552   1.392   8.569   0.386
  493DIO     F127553   2.130   1.404   1.347
  493DIO     C127554   2.053   1.365   1.450
  493DIO     C227555   1.908   1.378   1.439
  493DIO     C327556   1.820   1.339   1.550
  493DIO     C427557   1.885   1.283   1.671
  493DIO     C527558   2.029   1.271   1.679
  493DIO     F227559   2.085   1.216   1.789
  493DIO     C627560   2.113   1.311   1.569
  493DIO     F327561   2.247   1.300   1.578
  493DIO     C727562   1.673   1.352   1.542
  493DIO     C827563   1.596   1.419   1.649
  493DIO     C927564   1.451   1.432   1.641
  493DIO    C1027565   1.379   1.370   1.532
  493DIO    C1127566   1.451   1.311   1.421
  493DIO    C1227567   1.595   1.300   1.428
  493DIO     F427568   1.660   1.239   1.327
  493DIO     O127569   1.247   1.407   1.518
  493DIO    C1327570   1.152   1.316   1.471
  493DIO     O227571   1.151   1.191   1.462
  493DIO    C1427572   1.023   1.379   1.442
  493DIO    C1527573   0.957   1.470   1.538
  493DIO     F527574   1.019   1.504   1.652
  493DIO    C1627575   0.826   1.528   1.514
  493DIO    C1727576   0.750   1.492   1.394
  493DIO    C1827577   0.819   1.417   1.290
  493DIO    C1927578   0.951   1.360   1.314
  493DIO     F627579   1.013   1.304   1.208
  493DIO    C2027580   0.609   1.543   1.373
  493DIO     O327581   0.540   1.573   1.494
  493DIO    C2127582   0.496   1.456   1.563
  493DIO    C2227583   0.407   1.370   1.473
  493DIO    C2327584   0.488   1.340   1.347
  493DIO     O427585   0.532   1.460   1.285
  493DIO    C2427586   0.274   1.439   1.435
  493DIO    C2527587   0.184   1.479   1.553
  493DIO    C2627588   0.145   1.362   1.642
  493DIO     H127589   1.866   1.418   1.348
  493DIO     H227590   1.825   1.243   1.752
  493DIO     H327591   1.648   1.464   1.733
  493DIO     H427592   1.396   1.488   1.716
  493DIO     H527593   1.397   1.270   1.337
  493DIO     H627594   0.788   1.601   1.584
  493DIO     H727595   0.776   1.407   1.191
  493DIO     H827596   0.619   1.639   1.321
  493DIO     H927597   0.583   1.398   1.597
  493DIO    H1027598   0.443   1.488   1.653
  493DIO    H1127599   0.385   1.276   1.524
  493DIO    H1227600   0.427   1.285   1.274
  493DIO    H1327601   0.574   1.276   1.370
  493DIO    H1427602   0.294   1.530   1.376
  493DIO    H1527603   0.218   1.372   1.370
  493DIO    H1627604   0.231   1.557   1.613
  493DIO    H1727605   0.092   1.523   1.512
  493DIO    H1827606   0.101   1.280   1.584
  493DIO    H1927607   0.232   1.323   1.697
  493DIO    H2027608   0.072   1.395   1.716
  494DIO     F127609   7.936   4.066   1.262
  494DIO     C127610   7.859   4.120   1.358
  494DIO     C227611   7.715   4.121   1.341
  494DIO     C327612   7.626   4.181   1.443
  494DIO     C427613   7.691   4.238   1.563
  494DIO     C527614   7.836   4.236   1.578
  494DIO     F227615   7.891   4.286   1.690
  494DIO     C627616   7.919   4.177   1.476
  494DIO     F327617   8.053   4.178   1.490
  494DIO     C727618   7.479   4.183   1.427
  494DIO     C827619   7.402   4.308   1.445
  494DIO     C927620   7.258   4.311   1.430
  494DIO    C1027621   7.185   4.187   1.407
  494DIO    C1127622   7.258   4.064   1.382
  494DIO    C1227623   7.402   4.062   1.394
  494DIO     F427624   7.467   3.945   1.376
  494DIO     O127625   7.053   4.200   1.370
  494DIO    C1327626   6.958   4.106   1.410
  494DIO     O227627   6.957   4.018   1.500
  494DIO    C1427628   6.829   4.123   1.342
  494DIO    C1527629   6.763   4.255   1.334
  494DIO     F527630   6.826   4.365   1.381
  494DIO    C1627631   6.632   4.274   1.274
  494DIO    C1727632   6.556   4.159   1.225
  494DIO    C1827633   6.625   4.031   1.216
  494DIO    C1927634   6.757   4.013   1.275
  494DIO     F627635   6.819   3.896   1.250
  494DIO    C2027636   6.416   4.175   1.172
  494DIO     O327637   6.346   4.288   1.227
  494DIO    C2127638   6.302   4.265   1.361
  494DIO    C2227639   6.213   4.142   1.369
  494DIO    C2327640   6.294   4.025   1.312
  494DIO     O427641   6.338   4.055   1.180
  494DIO    C2427642   6.081   4.157   1.292
  494DIO    C2527643   5.990   4.272   1.337
  494DIO    C2627644   5.951   4.266   1.484
  494DIO     H127645   7.672   4.076   1.252
  494DIO     H227646   7.631   4.275   1.645
  494DIO     H327647   7.454   4.401   1.464
  494DIO     H427648   7.203   4.404   1.434
  494DIO     H527649   7.203   3.973   1.360
  494DIO     H627650   6.594   4.375   1.264
  494DIO     H727651   6.582   3.948   1.161
  494DIO     H827652   6.425   4.197   1.065
  494DIO     H927653   6.389   4.255   1.427
  494DIO    H1027654   6.249   4.355   1.394
  494DIO    H1127655   6.191   4.120   1.474
  494DIO    H1227656   6.233   3.935   1.307
  494DIO    H1327657   6.380   4.002   1.376
  494DIO    H1427658   6.100   4.170   1.185
  494DIO    H1527659   6.024   4.063   1.302
  494DIO    H1627660   6.037   4.369   1.315
  494DIO    H1727661   5.898   4.269   1.277
  494DIO    H1827662   5.908   4.170   1.510
  494DIO    H1927663   6.038   4.284   1.549
  494DIO    H2027664   5.878   4.344   1.506
  495DIO     F127665   2.523   8.092   4.178
  495DIO     C127666   2.446   8.155   4.087
  495DIO     C227667   2.302   8.139   4.094
  495DIO     C327668   2.213   8.205   3.996
  495DIO     C427669   2.278   8.288   3.892
  495DIO     C527670   2.423   8.301   3.887
  495DIO     F227671   2.478   8.381   3.794
  495DIO     C627672   2.506   8.236   3.984
  495DIO     F327673   2.640   8.248   3.978
  495DIO     C727674   2.067   8.189   4.001
  495DIO     C827675   1.989   8.150   3.880
  495DIO     C927676   1.845   8.136   3.885
  495DIO    C1027677   1.772   8.169   4.006
  495DIO    C1127678   1.845   8.201   4.128
  495DIO    C1227679   1.989   8.213   4.124
  495DIO     F427680   2.054   8.247   4.237
  495DIO     O127681   1.640   8.130   4.011
  495DIO    C1327682   1.545   8.207   4.078
  495DIO     O227683   1.545   8.327   4.117
  495DIO    C1427684   1.416   8.139   4.091
  495DIO    C1527685   1.350   8.074   3.976
  495DIO     F527686   1.413   8.068   3.857
  495DIO    C1627687   1.219   8.012   3.986
  495DIO    C1727688   1.143   8.018   4.110
  495DIO    C1827689   1.212   8.066   4.230
  495DIO    C1927690   1.344   8.126   4.220
  495DIO     F627691   1.406   8.155   4.336
  495DIO    C2027692   1.003   7.964   4.119
  495DIO     O327693   0.933   7.964   3.994
  495DIO    C2127694   0.889   8.094   3.956
  495DIO    C2227695   0.800   8.155   4.063
  495DIO    C2327696   0.881   8.154   4.193
  495DIO     O427697   0.925   8.023   4.224
  495DIO    C2427698   0.668   8.079   4.083
  495DIO    C2527699   0.577   8.069   3.960
  495DIO    C2627700   0.539   8.204   3.901
  495DIO     H127701   2.259   8.079   4.174
  495DIO     H227702   2.218   8.346   3.823
  495DIO     H327703   2.041   8.127   3.788
  495DIO     H427704   1.790   8.099   3.799
  495DIO     H527705   1.790   8.220   4.219
  495DIO     H627706   1.181   7.958   3.900
  495DIO     H727707   1.169   8.052   4.328
  495DIO     H827708   1.012   7.858   4.146
  495DIO     H927709   0.976   8.158   3.936
  495DIO    H1027710   0.837   8.085   3.860
  495DIO    H1127711   0.778   8.259   4.037
  495DIO    H1227712   0.820   8.190   4.277
  495DIO    H1327713   0.967   8.222   4.186
  495DIO    H1427714   0.688   7.977   4.118
  495DIO    H1527715   0.611   8.128   4.163
  495DIO    H1627716   0.624   8.008   3.883
  495DIO    H1727717   0.485   8.016   3.989
  495DIO    H1827718   0.495   8.269   3.977
  495DIO    H1927719   0.625   8.255   3.857
  495DIO    H2027720   0.465   8.190   3.821
  496DIO     F127721   7.375   5.400   3.665
  496DIO     C127722   7.297   5.301   3.712
  496DIO     C227723   7.153   5.317   3.714
  496DIO     C327724   7.065   5.212   3.767
  496DIO     C427725   7.130   5.088   3.816
  496DIO     C527726   7.274   5.074   3.813
  496DIO     F227727   7.330   4.958   3.855
  496DIO     C627728   7.358   5.179   3.761
  496DIO     F327729   7.492   5.165   3.761
  496DIO     C727730   6.918   5.227   3.771
  496DIO     C827731   6.841   5.202   3.894
  496DIO     C927732   6.696   5.216   3.898
  496DIO    C1027733   6.624   5.247   3.776
  496DIO    C1127734   6.696   5.281   3.654
  496DIO    C1227735   6.840   5.268   3.652
  496DIO     F427736   6.905   5.295   3.537
  496DIO     O127737   6.492   5.284   3.791
  496DIO    C1327738   6.397   5.250   3.694
  496DIO     O227739   6.396   5.166   3.601
  496DIO    C1427740   6.268   5.316   3.717
  496DIO    C1527741   6.202   5.315   3.849
  496DIO     F527742   6.264   5.261   3.956
  496DIO    C1627743   6.071   5.374   3.871
  496DIO    C1727744   5.995   5.431   3.760
  496DIO    C1827745   6.064   5.448   3.633
  496DIO    C1927746   6.195   5.391   3.611
  496DIO     F627747   6.258   5.423   3.496
  496DIO    C2027748   5.854   5.482   3.780
  496DIO     O327749   5.785   5.420   3.888
  496DIO    C2127750   5.741   5.288   3.857
  496DIO    C2227751   5.652   5.288   3.733
  496DIO    C2327752   5.733   5.353   3.621
  496DIO     O427753   5.777   5.483   3.659
  496DIO    C2427754   5.519   5.364   3.754
  496DIO    C2527755   5.429   5.312   3.865
  496DIO    C2627756   5.390   5.165   3.850
  496DIO     H127757   7.111   5.409   3.675
  496DIO     H227758   7.069   5.004   3.847
  496DIO     H327759   6.893   5.176   3.986
  496DIO     H427760   6.641   5.206   3.990
  496DIO     H527761   6.642   5.309   3.565
  496DIO     H627762   6.033   5.378   3.973
  496DIO     H727763   6.021   5.509   3.554
  496DIO     H827764   5.864   5.588   3.809
  496DIO     H927765   5.828   5.223   3.842
  496DIO    H1027766   5.688   5.249   3.944
  496DIO    H1127767   5.630   5.185   3.705
  496DIO    H1227768   5.672   5.364   3.531
  496DIO    H1327769   5.819   5.291   3.594
  496DIO    H1427770   5.539   5.470   3.774
  496DIO    H1527771   5.463   5.361   3.660
  496DIO    H1627772   5.476   5.327   3.963
  496DIO    H1727773   5.337   5.372   3.866
  496DIO    H1827774   5.346   5.146   3.751
  496DIO    H1927775   5.477   5.100   3.862
  496DIO    H2027776   5.317   5.138   3.926
  497DIO     F127777   9.045   6.887   3.692
  497DIO     C127778   8.968   6.996   3.708
  497DIO     C227779   8.823   6.983   3.697
  497DIO     C327780   8.735   7.100   3.712
  497DIO     C427781   8.800   7.230   3.740
  497DIO     C527782   8.944   7.241   3.751
  497DIO     F227783   9.000   7.360   3.781
  497DIO     C627784   9.028   7.124   3.735
  497DIO     F327785   9.162   7.135   3.744
  497DIO     C727786   8.588   7.089   3.700
  497DIO     C827787   8.511   7.180   3.612
  497DIO     C927788   8.366   7.169   3.601
  497DIO    C1027789   8.294   7.075   3.685
  497DIO    C1127790   8.366   6.980   3.767
  497DIO    C1227791   8.510   6.989   3.776
  497DIO     F427792   8.575   6.903   3.857
  497DIO     O127793   8.162   7.054   3.652
  497DIO    C1327794   8.067   7.028   3.751
  497DIO     O227795   8.066   7.046   3.876
  497DIO    C1427796   7.938   6.985   3.696
  497DIO    C1527797   7.872   7.060   3.586
  497DIO     F527798   7.934   7.164   3.528
  497DIO    C1627799   7.741   7.024   3.535
  497DIO    C1727800   7.665   6.915   3.595
  497DIO    C1827801   7.734   6.829   3.691
  497DIO    C1927802   7.866   6.865   3.742
  497DIO     F627803   7.928   6.773   3.819
  497DIO    C2027804   7.524   6.883   3.551
  497DIO     O327805   7.455   6.995   3.495
  497DIO    C2127806   7.411   7.087   3.595
  497DIO    C2227807   7.322   7.018   3.698
  497DIO    C2327808   7.403   6.901   3.755
  497DIO     O427809   7.447   6.815   3.650
  497DIO    C2427810   7.189   6.966   3.638
  497DIO    C2527811   7.099   7.072   3.575
  497DIO    C2627812   7.060   7.185   3.669
  497DIO     H127813   8.781   6.885   3.678
  497DIO     H227814   8.740   7.318   3.762
  497DIO     H327815   8.563   7.252   3.550
  497DIO     H427816   8.311   7.229   3.530
  497DIO     H527817   8.312   6.907   3.825
  497DIO     H627818   7.703   7.077   3.449
  497DIO     H727819   7.691   6.735   3.723
  497DIO     H827820   7.534   6.812   3.468
  497DIO     H927821   7.498   7.133   3.644
  497DIO    H1027822   7.358   7.168   3.544
  497DIO    H1127823   7.300   7.088   3.779
  497DIO    H1227824   7.342   6.842   3.823
  497DIO    H1327825   7.489   6.938   3.812
  497DIO    H1427826   7.209   6.889   3.563
  497DIO    H1527827   7.133   6.916   3.718
  497DIO    H1627828   7.146   7.114   3.485
  497DIO    H1727829   7.007   7.023   3.540
  497DIO    H1827830   7.016   7.146   3.762
  497DIO    H1927831   7.147   7.247   3.696
  497DIO    H2027832   6.987   7.250   3.622
  498DIO     F127833   9.325   2.961   6.400
  498DIO     C127834   9.247   2.851   6.397
  498DIO     C227835   9.103   2.865   6.406
  498DIO     C327836   9.015   2.747   6.405
  498DIO     C427837   9.080   2.615   6.393
  498DIO     C527838   9.224   2.603   6.384
  498DIO     F227839   9.280   2.481   6.368
  498DIO     C627840   9.308   2.720   6.385
  498DIO     F327841   9.442   2.708   6.378
  498DIO     C727842   8.868   2.759   6.415
  498DIO     C827843   8.791   2.680   6.514
  498DIO     C927844   8.646   2.692   6.523
  498DIO    C1027845   8.574   2.775   6.429
  498DIO    C1127846   8.646   2.860   6.336
  498DIO    C1227847   8.790   2.850   6.328
  498DIO     F427848   8.855   2.925   6.238
  498DIO     O127849   8.442   2.800   6.459
  498DIO    C1327850   8.347   2.814   6.358
  498DIO     O227851   8.346   2.781   6.236
  498DIO    C1427852   8.218   2.863   6.408
  498DIO    C1527853   8.152   2.802   6.525
  498DIO     F527854   8.214   2.705   6.595
  498DIO    C1627855   8.021   2.844   6.572
  498DIO    C1727856   7.945   2.945   6.499
  498DIO    C1827857   8.014   3.019   6.393
  498DIO    C1927858   8.145   2.977   6.348
  498DIO     F627859   8.208   3.059   6.260
  498DIO    C2027860   7.804   2.982   6.539
  498DIO     O327861   7.735   2.877   6.608
  498DIO    C2127862   7.691   2.774   6.520
  498DIO    C2227863   7.602   2.830   6.409
  498DIO    C2327864   7.683   2.939   6.339
  498DIO     O427865   7.727   3.038   6.432
  498DIO    C2427866   7.469   2.889   6.462
  498DIO    C2527867   7.379   2.791   6.538
  498DIO    C2627868   7.340   2.668   6.458
  498DIO     H127869   9.061   2.965   6.413
  498DIO     H227870   9.019   2.525   6.382
  498DIO     H327871   8.843   2.616   6.584
  498DIO     H427872   8.591   2.640   6.601
  498DIO     H527873   8.592   2.925   6.270
  498DIO     H627874   7.983   2.801   6.664
  498DIO     H727875   7.971   3.108   6.351
  498DIO     H827876   7.814   3.063   6.613
  498DIO     H927877   7.778   2.723   6.477
  498DIO    H1027878   7.638   2.699   6.580
  498DIO    H1127879   7.580   2.751   6.337
  498DIO    H1227880   7.622   2.990   6.264
  498DIO    H1327881   7.769   2.896   6.286
  498DIO    H1427882   7.489   2.974   6.528
  498DIO    H1527883   7.413   2.929   6.377
  498DIO    H1627884   7.426   2.760   6.632
  498DIO    H1727885   7.287   2.844   6.566
  498DIO    H1827886   7.296   2.696   6.361
  498DIO    H1927887   7.427   2.604   6.439
  498DIO    H2027888   7.267   2.609   6.513
  499DIO     F127889   2.889   3.774   2.750
  499DIO     C127890   2.811   3.802   2.643
  499DIO     C227891   2.667   3.790   2.655
  499DIO     C327892   2.578   3.817   2.540
  499DIO     C427893   2.644   3.859   2.413
  499DIO     C527894   2.788   3.870   2.404
  499DIO     F227895   2.844   3.912   2.289
  499DIO     C627896   2.872   3.842   2.518
  499DIO     F327897   3.006   3.852   2.508
  499DIO     C727898   2.432   3.804   2.550
  499DIO     C827899   2.355   3.726   2.450
  499DIO     C927900   2.210   3.714   2.460
  499DIO    C1027901   2.138   3.787   2.562
  499DIO    C1127902   2.210   3.859   2.665
  499DIO    C1227903   2.354   3.869   2.657
  499DIO     F427904   2.419   3.940   2.751
  499DIO     O127905   2.005   3.752   2.579
  499DIO    C1327906   1.911   3.848   2.616
  499DIO     O227907   1.910   3.974   2.611
  499DIO    C1427908   1.782   3.788   2.652
  499DIO    C1527909   1.715   3.688   2.567
  499DIO     F527910   1.778   3.641   2.457
  499DIO    C1627911   1.585   3.633   2.597
  499DIO    C1727912   1.509   3.681   2.712
  499DIO    C1827913   1.578   3.768   2.807
  499DIO    C1927914   1.709   3.822   2.777
  499DIO     F627915   1.772   3.889   2.876
  499DIO    C2027916   1.368   3.634   2.739
  499DIO     O327917   1.298   3.590   2.622
  499DIO    C2127918   1.255   3.699   2.541
  499DIO    C2227919   1.166   3.794   2.620
  499DIO    C2327920   1.247   3.838   2.742
  499DIO     O427921   1.291   3.726   2.817
  499DIO    C2427922   1.033   3.729   2.665
  499DIO    C2527923   0.942   3.677   2.553
  499DIO    C2627924   0.904   3.783   2.451
  499DIO     H127925   2.625   3.761   2.750
  499DIO     H227926   2.583   3.889   2.329
  499DIO     H327927   2.406   3.672   2.372
  499DIO     H427928   2.155   3.650   2.392
  499DIO     H527929   2.156   3.909   2.744
  499DIO     H627930   1.547   3.553   2.535
  499DIO     H727931   1.535   3.789   2.904
  499DIO     H827932   1.378   3.544   2.801
  499DIO     H927933   1.341   3.752   2.500
  499DIO    H1027934   1.202   3.657   2.454
  499DIO    H1127935   1.143   3.882   2.559
  499DIO    H1227936   1.186   3.900   2.808
  499DIO    H1327937   1.333   3.899   2.712
  499DIO    H1427938   1.053   3.646   2.734
  499DIO    H1527939   0.977   3.804   2.723
  499DIO    H1627940   0.990   3.593   2.502
  499DIO    H1727941   0.851   3.638   2.599
  499DIO    H1827942   0.860   3.871   2.500
  499DIO    H1927943   0.991   3.816   2.393
  499DIO    H2027944   0.830   3.743   2.381
  500DIO     F127945   5.446   6.817   9.831
  500DIO     C127946   5.368   6.917   9.877
  500DIO     C227947   5.224   6.907   9.863
  500DIO     C327948   5.135   7.016   9.910
  500DIO     C427949   5.201   7.132   9.974
  500DIO     C527950   5.345   7.140   9.986
  500DIO     F227951   5.400   7.245  10.049
  500DIO     C627952   5.429   7.032   9.939
  500DIO     F327953   5.563   7.041   9.950
  500DIO     C727954   4.989   7.008   9.896
  500DIO     C827955   4.912   7.120   9.837
  500DIO     C927956   4.767   7.113   9.823
  500DIO    C1027957   4.694   6.999   9.877
  500DIO    C1127958   4.767   6.885   9.929
  500DIO    C1227959   4.911   6.891   9.940
  500DIO     F427960   4.976   6.785   9.994
  500DIO     O127961   4.562   6.988   9.840
  500DIO    C1327962   4.468   6.935   9.927
  500DIO     O227963   4.467   6.918  10.052
  500DIO    C1427964   4.339   6.910   9.862
  500DIO    C1527965   4.272   7.012   9.778
  500DIO     F527966   4.335   7.129   9.752
  500DIO    C1627967   4.142   6.992   9.719
  500DIO    C1727968   4.066   6.870   9.746
  500DIO    C1827969   4.135   6.761   9.814
  500DIO    C1927970   4.266   6.781   9.872
  500DIO     F627971   4.329   6.672   9.921
  500DIO    C2027972   3.925   6.853   9.694
  500DIO     O327973   3.855   6.976   9.673
  500DIO    C2127974   3.812   7.036   9.794
  500DIO    C2227975   3.723   6.941   9.873
  500DIO    C2327976   3.804   6.813   9.895
  500DIO     O427977   3.848   6.759   9.770
  500DIO    C2427978   3.590   6.908   9.801
  500DIO    C2527979   3.499   7.027   9.771
  500DIO    C2627980   3.461   7.109   9.893
  500DIO     H127981   5.181   6.819   9.817
  500DIO     H227982   5.140   7.210  10.019
  500DIO     H327983   4.963   7.207   9.798
  500DIO     H427984   4.712   7.191   9.772
  500DIO     H527985   4.713   6.798   9.964
  500DIO     H627986   4.103   7.068   9.651
  500DIO     H727987   4.092   6.662   9.817
  500DIO     H827988   3.935   6.807   9.594
  500DIO     H927989   3.898   7.066   9.854
  500DIO    H1027990   3.759   7.128   9.768
  500DIO    H1127991   3.700   6.985   9.971
  500DIO    H1227992   3.742   6.736   9.944
  500DIO    H1327993   3.890   6.831   9.960
  500DIO    H1427994   3.610   6.855   9.707
  500DIO    H1527995   3.534   6.838   9.864
  500DIO    H1627996   3.547   7.093   9.696
  500DIO    H1727997   3.408   6.990   9.724
  500DIO    H1827998   3.417   7.045   9.971
  500DIO    H1927999   3.547   7.161   9.935
  500DIO    H2028000   3.387   7.185   9.866
  501DIO     F128001   2.491   5.532   7.988
  501DIO     C128002   2.414   5.422   7.988
  501DIO     C228003   2.270   5.436   7.997
  501DIO     C328004   2.181   5.318   7.999
  501DIO     C428005   2.246   5.185   7.989
  501DIO     C528006   2.391   5.173   7.980
  501DIO     F228007   2.446   5.051   7.968
  501DIO     C628008   2.474   5.291   7.979
  501DIO     F328009   2.608   5.279   7.972
  501DIO     C728010   2.035   5.330   8.008
  501DIO     C828011   1.957   5.254   8.109
  501DIO     C928012   1.813   5.265   8.118
  501DIO    C1028013   1.740   5.346   8.022
  501DIO    C1128014   1.813   5.429   7.927
  501DIO    C1228015   1.957   5.419   7.919
  501DIO     F428016   2.022   5.493   7.827
  501DIO     O128017   1.608   5.372   8.051
  501DIO    C1328018   1.513   5.384   7.950
  501DIO     O228019   1.513   5.348   7.829
  501DIO    C1428020   1.384   5.434   7.999
  501DIO    C1528021   1.318   5.376   8.117
  501DIO     F528022   1.381   5.281   8.190
  501DIO    C1628023   1.187   5.419   8.163
  501DIO    C1728024   1.111   5.518   8.088
  501DIO    C1828025   1.180   5.589   7.981
  501DIO    C1928026   1.312   5.547   7.936
  501DIO     F628027   1.374   5.626   7.846
  501DIO    C2028028   0.971   5.556   8.128
  501DIO     O328029   0.901   5.453   8.198
  501DIO    C2128030   0.857   5.348   8.113
  501DIO    C2228031   0.768   5.401   8.001
  501DIO    C2328032   0.849   5.509   7.928
  501DIO     O428033   0.893   5.609   8.019
  501DIO    C2428034   0.636   5.461   8.053
  501DIO    C2528035   0.545   5.365   8.130
  501DIO    C2628036   0.507   5.240   8.053
  501DIO     H128037   2.227   5.536   8.002
  501DIO     H228038   2.186   5.096   7.980
  501DIO     H328039   2.009   5.191   8.180
  501DIO     H428040   1.758   5.216   8.197
  501DIO     H528041   1.758   5.493   7.859
  501DIO     H628042   1.149   5.378   8.256
  501DIO     H728043   1.137   5.678   7.936
  501DIO     H828044   0.980   5.638   8.199
  501DIO     H928045   0.944   5.295   8.071
  501DIO    H1028046   0.805   5.274   8.174
  501DIO    H1128047   0.746   5.321   7.930
  501DIO    H1228048   0.788   5.558   7.852
  501DIO    H1328049   0.935   5.465   7.877
  501DIO    H1428050   0.656   5.548   8.117
  501DIO    H1528051   0.579   5.499   7.967
  501DIO    H1628052   0.592   5.336   8.225
  501DIO    H1728053   0.453   5.419   8.157
  501DIO    H1828054   0.463   5.266   7.956
  501DIO    H1928055   0.593   5.175   8.036
  501DIO    H2028056   0.433   5.182   8.109
  502DIO     F128057   8.203   8.880   2.253
  502DIO     C128058   8.126   8.773   2.225
  502DIO     C228059   7.982   8.785   2.237
  502DIO     C328060   7.893   8.670   2.208
  502DIO     C428061   7.958   8.545   2.165
  502DIO     C528062   8.103   8.535   2.154
  502DIO     F228063   8.158   8.421   2.110
  502DIO     C628064   8.186   8.649   2.183
  502DIO     F328065   8.320   8.639   2.173
  502DIO     C728066   7.746   8.680   2.221
  502DIO     C828067   7.669   8.580   2.298
  502DIO     C928068   7.525   8.589   2.310
  502DIO    C1028069   7.452   8.692   2.238
  502DIO    C1128070   7.525   8.796   2.168
  502DIO    C1228071   7.669   8.788   2.158
  502DIO     F428072   7.734   8.883   2.087
  502DIO     O128073   7.320   8.709   2.273
  502DIO    C1328074   7.225   8.747   2.178
  502DIO     O228075   7.224   8.743   2.052
  502DIO    C1428076   7.096   8.783   2.238
  502DIO    C1528077   7.030   8.696   2.338
  502DIO     F528078   7.093   8.585   2.383
  502DIO    C1628079   6.899   8.726   2.393
  502DIO    C1728080   6.823   8.841   2.346
  502DIO    C1828081   6.892   8.937   2.261
  502DIO    C1928082   7.024   8.908   2.207
  502DIO     F628083   7.086   9.007   2.140
  502DIO    C2028084   6.683   8.867   2.394
  502DIO     O328085   6.613   8.749   2.436
  502DIO    C2128086   6.569   8.670   2.326
  502DIO    C2228087   6.480   8.750   2.232
  502DIO    C2328088   6.561   8.873   2.189
  502DIO     O428089   6.605   8.946   2.303
  502DIO    C2428090   6.348   8.795   2.297
  502DIO    C2528091   6.257   8.682   2.348
  502DIO    C2628092   6.218   8.581   2.241
  502DIO     H128093   7.939   8.880   2.267
  502DIO     H228094   7.898   8.460   2.133
  502DIO     H328095   7.721   8.501   2.351
  502DIO     H428096   7.470   8.521   2.373
  502DIO     H528097   7.470   8.876   2.119
  502DIO     H628098   6.861   8.662   2.472
  502DIO     H728099   6.849   9.035   2.240
  502DIO     H828100   6.692   8.928   2.485
  502DIO     H928101   6.656   8.630   2.272
  502DIO    H1028102   6.516   8.583   2.367
  502DIO    H1128103   6.458   8.691   2.143
  502DIO    H1228104   6.500   8.940   2.128
  502DIO    H1328105   6.647   8.844   2.128
  502DIO    H1428106   6.367   8.862   2.381
  502DIO    H1528107   6.291   8.854   2.224
  502DIO    H1628108   6.304   8.630   2.432
  502DIO    H1728109   6.165   8.727   2.388
  502DIO    H1828110   6.175   8.631   2.154
  502DIO    H1928111   6.305   8.523   2.207
  502DIO    H2028112   6.145   8.511   2.280
  503DIO     F128113   5.657   7.039   1.770
  503DIO     C128114   5.579   6.936   1.810
  503DIO     C228115   5.435   6.953   1.812
  503DIO     C328116   5.346   6.843   1.858
  503DIO     C428117   5.412   6.717   1.897
  503DIO     C528118   5.556   6.702   1.894
  503DIO     F228119   5.612   6.584   1.926
  503DIO     C628120   5.640   6.811   1.850
  503DIO     F328121   5.774   6.797   1.848
  503DIO     C728122   5.200   6.859   1.862
  503DIO     C828123   5.123   6.824   1.984
  503DIO     C928124   4.978   6.838   1.988
  503DIO    C1028125   4.906   6.878   1.869
  503DIO    C1128126   4.978   6.921   1.750
  503DIO    C1228127   5.122   6.909   1.747
  503DIO     F428128   5.187   6.943   1.634
  503DIO     O128129   4.773   6.913   1.887
  503DIO    C1328130   4.679   6.887   1.788
  503DIO     O228131   4.678   6.810   1.689
  503DIO    C1428132   4.550   6.951   1.815
  503DIO    C1528133   4.483   6.941   1.947
  503DIO     F528134   4.546   6.879   2.049
  503DIO    C1628135   4.353   6.998   1.974
  503DIO    C1728136   4.277   7.062   1.867
  503DIO    C1828137   4.346   7.089   1.742
  503DIO    C1928138   4.477   7.034   1.716
  503DIO     F628139   4.540   7.075   1.603
  503DIO    C2028140   4.136   7.112   1.890
  503DIO     O328141   4.066   7.042   1.994
  503DIO    C2128142   4.023   6.913   1.953
  503DIO    C2228143   3.934   6.922   1.829
  503DIO    C2328144   4.015   6.995   1.722
  503DIO     O428145   4.059   7.122   1.770
  503DIO    C2428146   3.801   6.996   1.856
  503DIO    C2528147   3.710   6.936   1.963
  503DIO    C2628148   3.672   6.791   1.936
  503DIO     H128149   5.393   7.047   1.781
  503DIO     H228150   5.351   6.630   1.922
  503DIO     H328151   5.174   6.792   2.073
  503DIO     H428152   4.923   6.821   2.079
  503DIO     H528153   4.924   6.956   1.664
  503DIO     H628154   4.315   6.994   2.075
  503DIO     H728155   4.303   7.156   1.668
  503DIO     H828156   4.146   7.215   1.927
  503DIO     H928157   4.109   6.849   1.933
  503DIO    H1028158   3.970   6.867   2.037
  503DIO    H1128159   3.911   6.821   1.793
  503DIO    H1228160   3.954   7.013   1.633
  503DIO    H1328161   4.101   6.935   1.690
  503DIO    H1428162   3.821   7.101   1.883
  503DIO    H1528163   3.745   7.000   1.761
  503DIO    H1628164   3.758   6.943   2.062
  503DIO    H1728165   3.619   6.996   1.968
  503DIO    H1828166   3.628   6.779   1.837
  503DIO    H1928167   3.759   6.724   1.944
  503DIO    H2028168   3.598   6.758   2.010
  504DIO     F128169   9.550   1.894   5.262
  504DIO     C128170   9.473   2.003   5.277
  504DIO     C228171   9.328   1.989   5.266
  504DIO     C328172   9.240   2.107   5.279
  504DIO     C428173   9.305   2.237   5.306
  504DIO     C528174   9.449   2.248   5.316
  504DIO     F228175   9.505   2.368   5.344
  504DIO     C628176   9.533   2.131   5.302
  504DIO     F328177   9.667   2.143   5.310
  504DIO     C728178   9.093   2.096   5.268
  504DIO     C828179   9.016   2.185   5.178
  504DIO     C928180   8.871   2.174   5.167
  504DIO    C1028181   8.799   2.082   5.252
  504DIO    C1128182   8.871   1.988   5.336
  504DIO    C1228183   9.015   1.997   5.345
  504DIO     F428184   9.080   1.912   5.427
  504DIO     O128185   8.667   2.060   5.220
  504DIO    C1328186   8.572   2.035   5.319
  504DIO     O228187   8.571   2.055   5.443
  504DIO    C1428188   8.443   1.992   5.264
  504DIO    C1528189   8.377   2.065   5.154
  504DIO     F528190   8.439   2.168   5.094
  504DIO    C1628191   8.246   2.028   5.103
  504DIO    C1728192   8.170   1.920   5.165
  504DIO    C1828193   8.239   1.836   5.262
  504DIO    C1928194   8.371   1.872   5.312
  504DIO     F628195   8.433   1.782   5.391
  504DIO    C2028196   8.029   1.887   5.121
  504DIO     O328197   7.960   1.999   5.064
  504DIO    C2128198   7.916   2.092   5.162
  504DIO    C2228199   7.827   2.025   5.266
  504DIO    C2328200   7.908   1.909   5.325
  504DIO     O428201   7.952   1.821   5.221
  504DIO    C2428202   7.694   1.972   5.207
  504DIO    C2528203   7.604   2.077   5.142
  504DIO    C2628204   7.565   2.191   5.235
  504DIO     H128205   9.286   1.891   5.248
  504DIO     H228206   9.245   2.325   5.326
  504DIO     H328207   9.068   2.256   5.115
  504DIO     H428208   8.816   2.234   5.096
  504DIO     H528209   8.817   1.915   5.395
  504DIO     H628210   8.208   2.080   5.016
  504DIO     H728211   8.196   1.742   5.295
  504DIO     H828212   8.039   1.815   5.039
  504DIO     H928213   8.003   2.139   5.210
  504DIO    H1028214   7.863   2.173   5.111
  504DIO    H1128215   7.805   2.096   5.346
  504DIO    H1228216   7.847   1.850   5.394
  504DIO    H1328217   7.994   1.946   5.381
  504DIO    H1428218   7.714   1.894   5.133
  504DIO    H1528219   7.638   1.923   5.288
  504DIO    H1628220   7.651   2.118   5.052
  504DIO    H1728221   7.512   2.027   5.109
  504DIO    H1828222   7.521   2.153   5.328
  504DIO    H1928223   7.652   2.253   5.261
  504DIO    H2028224   7.492   2.256   5.187
  505DIO     F128225   4.603   3.841   0.300
  505DIO     C128226   4.525   3.950   0.313
  505DIO     C228227   4.381   3.936   0.303
  505DIO     C328228   4.292   4.054   0.314
  505DIO     C428229   4.358   4.185   0.338
  505DIO     C528230   4.502   4.196   0.348
  505DIO     F228231   4.558   4.316   0.375
  505DIO     C628232   4.586   4.079   0.336
  505DIO     F328233   4.720   4.090   0.344
  505DIO     C728234   4.146   4.043   0.303
  505DIO     C828235   4.069   4.131   0.212
  505DIO     C928236   3.924   4.120   0.201
  505DIO    C1028237   3.852   4.029   0.288
  505DIO    C1128238   3.924   3.936   0.373
  505DIO    C1228239   4.068   3.945   0.381
  505DIO     F428240   4.133   3.861   0.465
  505DIO     O128241   3.719   4.006   0.256
  505DIO    C1328242   3.625   3.983   0.355
  505DIO     O228243   3.624   4.005   0.479
  505DIO    C1428244   3.496   3.939   0.301
  505DIO    C1528245   3.430   4.010   0.190
  505DIO     F528246   3.492   4.113   0.128
  505DIO    C1628247   3.299   3.972   0.139
  505DIO    C1728248   3.223   3.865   0.203
  505DIO    C1828249   3.292   3.783   0.302
  505DIO    C1928250   3.423   3.820   0.351
  505DIO     F628251   3.486   3.731   0.431
  505DIO    C2028252   3.082   3.832   0.159
  505DIO     O328253   3.013   3.943   0.101
  505DIO    C2128254   2.969   4.038   0.197
  505DIO    C2228255   2.880   3.972   0.302
  505DIO    C2328256   2.961   3.857   0.363
  505DIO     O428257   3.005   3.767   0.261
  505DIO    C2428258   2.747   3.918   0.244
  505DIO    C2528259   2.657   4.022   0.178
  505DIO    C2628260   2.618   4.138   0.269
  505DIO     H128261   4.339   3.838   0.287
  505DIO     H228262   4.297   4.273   0.357
  505DIO     H328263   4.120   4.201   0.148
  505DIO     H428264   3.869   4.178   0.129
  505DIO     H528265   3.870   3.864   0.433
  505DIO     H628266   3.261   4.023   0.052
  505DIO     H728267   3.249   3.689   0.336
  505DIO     H828268   3.092   3.758   0.079
  505DIO     H928269   3.056   4.085   0.245
  505DIO    H1028270   2.916   4.117   0.144
  505DIO    H1128271   2.857   4.044   0.381
  505DIO    H1228272   2.900   3.799   0.433
  505DIO    H1328273   3.047   3.895   0.419
  505DIO    H1428274   2.767   3.839   0.171
  505DIO    H1528275   2.691   3.871   0.326
  505DIO    H1628276   2.704   4.061   0.087
  505DIO    H1728277   2.565   3.972   0.145
  505DIO    H1828278   2.574   4.101   0.362
  505DIO    H1928279   2.705   4.200   0.293
  505DIO    H2028280   2.544   4.202   0.219
  506DIO     F128281   2.638   9.364   7.625
  506DIO     C128282   2.561   9.407   7.524
  506DIO     C228283   2.417   9.393   7.534
  506DIO     C328284   2.328   9.437   7.424
  506DIO     C428285   2.393   9.498   7.306
  506DIO     C528286   2.538   9.510   7.298
  506DIO     F228287   2.593   9.569   7.191
  506DIO     C628288   2.621   9.466   7.407
  506DIO     F328289   2.755   9.477   7.398
  506DIO     C728290   2.181   9.423   7.432
  506DIO     C828291   2.104   9.361   7.322
  506DIO     C928292   1.960   9.348   7.330
  506DIO    C1028293   1.887   9.405   7.441
  506DIO    C1128294   1.959   9.460   7.555
  506DIO    C1228295   2.104   9.471   7.548
  506DIO     F428296   2.168   9.528   7.652
  506DIO     O128297   1.755   9.368   7.454
  506DIO    C1328298   1.660   9.457   7.504
  506DIO     O228299   1.659   9.582   7.518
  506DIO    C1428300   1.531   9.392   7.531
  506DIO    C1528301   1.465   9.306   7.432
  506DIO     F528302   1.527   9.276   7.316
  506DIO    C1628303   1.334   9.247   7.454
  506DIO    C1728304   1.258   9.278   7.574
  506DIO    C1828305   1.327   9.349   7.681
  506DIO    C1928306   1.459   9.406   7.660
  506DIO     F628307   1.521   9.458   7.768
  506DIO    C2028308   1.118   9.226   7.594
  506DIO     O328309   1.048   9.201   7.471
  506DIO    C2128310   1.004   9.321   7.407
  506DIO    C2228311   0.915   9.403   7.500
  506DIO    C2328312   0.996   9.428   7.628
  506DIO     O428313   1.040   9.305   7.685
  506DIO    C2428314   0.782   9.332   7.535
  506DIO    C2528315   0.692   9.298   7.417
  506DIO    C2628316   0.653   9.418   7.332
  506DIO     H128317   2.374   9.350   7.624
  506DIO     H228318   2.333   9.541   7.227
  506DIO     H328319   2.156   9.319   7.237
  506DIO     H428320   1.904   9.294   7.253
  506DIO     H528321   1.905   9.498   7.640
  506DIO     H628322   1.296   9.177   7.380
  506DIO     H728323   1.284   9.355   7.781
  506DIO     H828324   1.127   9.128   7.642
  506DIO     H928325   1.091   9.379   7.375
  506DIO    H1028326   0.951   9.292   7.316
  506DIO    H1128327   0.893   9.499   7.453
  506DIO    H1228328   0.935   9.480   7.702
  506DIO    H1328329   1.082   9.493   7.607
  506DIO    H1428330   0.802   9.239   7.591
  506DIO    H1528331   0.726   9.397   7.604
  506DIO    H1628332   0.739   9.221   7.354
  506DIO    H1728333   0.600   9.252   7.456
  506DIO    H1828334   0.609   9.497   7.393
  506DIO    H1928335   0.740   9.458   7.279
  506DIO    H2028336   0.580   9.388   7.256
  507DIO     F128337   6.643   6.132   8.989
  507DIO     C128338   6.565   6.032   9.035
  507DIO     C228339   6.421   6.049   9.036
  507DIO     C328340   6.332   5.942   9.087
  507DIO     C428341   6.398   5.817   9.134
  507DIO     C528342   6.542   5.803   9.131
  507DIO     F228343   6.597   5.686   9.170
  507DIO     C628344   6.626   5.909   9.081
  507DIO     F328345   6.760   5.895   9.080
  507DIO     C728346   6.186   5.957   9.091
  507DIO     C828347   6.109   5.929   9.214
  507DIO     C928348   5.964   5.944   9.218
  507DIO    C1028349   5.891   5.977   9.097
  507DIO    C1128350   5.964   6.013   8.976
  507DIO    C1228351   6.108   6.001   8.973
  507DIO     F428352   6.173   6.030   8.859
  507DIO     O128353   5.759   6.013   9.113
  507DIO    C1328354   5.665   5.982   9.015
  507DIO     O228355   5.664   5.899   8.920
  507DIO    C1428356   5.536   6.047   9.039
  507DIO    C1528357   5.469   6.043   9.171
  507DIO     F528358   5.532   5.987   9.277
  507DIO    C1628359   5.339   6.102   9.195
  507DIO    C1728360   5.263   6.161   9.085
  507DIO    C1828361   5.332   6.181   8.959
  507DIO    C1928362   5.463   6.124   8.935
  507DIO     F628363   5.526   6.159   8.821
  507DIO    C2028364   5.122   6.212   9.106
  507DIO     O328365   5.052   6.147   9.213
  507DIO    C2128366   5.009   6.016   9.179
  507DIO    C2228367   4.920   6.019   9.055
  507DIO    C2328368   5.001   6.086   8.944
  507DIO     O428369   5.045   6.215   8.986
  507DIO    C2428370   4.787   6.094   9.077
  507DIO    C2528371   4.696   6.039   9.188
  507DIO    C2628372   4.658   5.893   9.169
  507DIO     H128373   6.378   6.141   9.000
  507DIO     H228374   6.337   5.732   9.163
  507DIO     H328375   6.160   5.901   9.305
  507DIO     H428376   5.909   5.931   9.310
  507DIO     H528377   5.910   6.044   8.888
  507DIO     H628378   5.300   6.103   9.297
  507DIO     H728379   5.289   6.244   8.881
  507DIO     H828380   5.132   6.316   9.137
  507DIO     H928381   5.095   5.951   9.163
  507DIO    H1028382   4.956   5.975   9.265
  507DIO    H1128383   4.897   5.916   9.024
  507DIO    H1228384   4.939   6.099   8.854
  507DIO    H1328385   5.087   6.025   8.915
  507DIO    H1428386   4.807   6.200   9.099
  507DIO    H1528387   4.731   6.093   8.983
  507DIO    H1628388   4.744   6.052   9.286
  507DIO    H1728389   4.605   6.100   9.190
  507DIO    H1828390   4.614   5.877   9.070
  507DIO    H1928391   4.744   5.827   9.180
  507DIO    H2028392   4.584   5.864   9.244
  508DIO     F128393   6.642   9.183   9.420
  508DIO     C128394   6.564   9.242   9.327
  508DIO     C228395   6.420   9.226   9.335
  508DIO     C328396   6.331   9.287   9.233
  508DIO     C428397   6.397   9.366   9.126
  508DIO     C528398   6.541   9.379   9.120
  508DIO     F228399   6.596   9.455   9.023
  508DIO     C628400   6.625   9.318   9.220
  508DIO     F328401   6.759   9.330   9.214
  508DIO     C728402   6.185   9.272   9.238
  508DIO     C828403   6.108   9.228   9.120
  508DIO     C928404   5.963   9.214   9.125
  508DIO    C1028405   5.890   9.253   9.245
  508DIO    C1128406   5.963   9.289   9.365
  508DIO    C1228407   6.107   9.301   9.361
  508DIO     F428408   6.172   9.340   9.472
  508DIO     O128409   5.758   9.214   9.251
  508DIO    C1328410   5.664   9.294   9.315
  508DIO     O228411   5.663   9.415   9.349
  508DIO    C1428412   5.535   9.226   9.332
  508DIO    C1528413   5.468   9.156   9.219
  508DIO     F528414   5.531   9.145   9.100
  508DIO    C1628415   5.338   9.094   9.232
  508DIO    C1728416   5.262   9.106   9.356
  508DIO    C1828417   5.331   9.159   9.473
  508DIO    C1928418   5.462   9.219   9.460
  508DIO     F628419   5.525   9.254   9.575
  508DIO    C2028420   5.121   9.052   9.367
  508DIO     O328421   5.051   9.047   9.242
  508DIO    C2128422   5.008   9.175   9.198
  508DIO    C2228423   4.919   9.241   9.303
  508DIO    C2328424   5.000   9.246   9.432
  508DIO     O428425   5.044   9.116   9.469
  508DIO    C2428426   4.786   9.166   9.326
  508DIO    C2528427   4.695   9.151   9.203
  508DIO    C2628428   4.657   9.282   9.138
  508DIO     H128429   6.377   9.170   9.416
  508DIO     H228430   6.336   9.421   9.054
  508DIO     H328431   6.159   9.201   9.029
  508DIO     H428432   5.908   9.173   9.042
  508DIO     H528433   5.909   9.313   9.456
  508DIO     H628434   5.299   9.037   9.148
  508DIO     H728435   5.288   9.150   9.572
  508DIO     H828436   5.131   8.948   9.399
  508DIO     H928437   5.094   9.238   9.176
  508DIO    H1028438   4.955   9.161   9.103
  508DIO    H1128439   4.896   9.344   9.271
  508DIO    H1228440   4.938   9.285   9.514
  508DIO    H1328441   5.086   9.313   9.422
  508DIO    H1428442   4.806   9.065   9.366
  508DIO    H1528443   4.730   9.219   9.404
  508DIO    H1628444   4.743   9.085   9.129
  508DIO    H1728445   4.604   9.099   9.235
  508DIO    H1828446   4.613   9.351   9.211
  508DIO    H1928447   4.743   9.331   9.093
  508DIO    H2028448   4.583   9.265   9.059
  509DIO     F128449   4.632   2.571   2.155
  509DIO     C128450   4.555   2.644   2.073
  509DIO     C228451   4.411   2.627   2.078
  509DIO     C328452   4.322   2.704   1.987
  509DIO     C428453   4.387   2.798   1.893
  509DIO     C528454   4.532   2.812   1.890
  509DIO     F228455   4.587   2.902   1.806
  509DIO     C628456   4.615   2.736   1.980
  509DIO     F328457   4.749   2.749   1.975
  509DIO     C728458   4.175   2.688   1.990
  509DIO     C828459   4.098   2.663   1.866
  509DIO     C928460   3.954   2.648   1.869
  509DIO    C1028461   3.881   2.667   1.993
  509DIO    C1128462   3.953   2.685   2.118
  509DIO    C1228463   4.098   2.697   2.115
  509DIO     F428464   4.162   2.718   2.232
  509DIO     O128465   3.749   2.628   1.994
  509DIO    C1328466   3.654   2.697   2.069
  509DIO     O228467   3.653   2.811   2.121
  509DIO    C1428468   3.525   2.627   2.075
  509DIO    C1528469   3.459   2.576   1.953
  509DIO     F528470   3.521   2.584   1.834
  509DIO    C1628471   3.328   2.513   1.955
  509DIO    C1728472   3.252   2.505   2.080
  509DIO    C1828473   3.321   2.539   2.204
  509DIO    C1928474   3.453   2.601   2.201
  509DIO     F628475   3.515   2.616   2.320
  509DIO    C2028476   3.112   2.450   2.082
  509DIO     O328477   3.042   2.465   1.958
  509DIO    C2128478   2.998   2.598   1.935
  509DIO    C2228479   2.909   2.647   2.049
  509DIO    C2328480   2.990   2.631   2.177
  509DIO     O428481   3.034   2.497   2.193
  509DIO    C2428482   2.776   2.569   2.060
  509DIO    C2528483   2.686   2.573   1.936
  509DIO    C2628484   2.647   2.714   1.893
  509DIO     H128485   4.368   2.558   2.150
  509DIO     H228486   4.327   2.863   1.832
  509DIO     H328487   4.150   2.650   1.772
  509DIO     H428488   3.898   2.621   1.780
  509DIO     H528489   3.899   2.694   2.211
  509DIO     H628490   3.290   2.470   1.864
  509DIO     H728491   3.278   2.514   2.300
  509DIO     H828492   3.121   2.342   2.097
  509DIO     H928493   3.085   2.664   1.923
  509DIO    H1028494   2.945   2.600   1.839
  509DIO    H1128495   2.887   2.753   2.034
  509DIO    H1228496   2.929   2.657   2.265
  509DIO    H1328497   3.076   2.699   2.178
  509DIO    H1428498   2.796   2.464   2.083
  509DIO    H1528499   2.720   2.609   2.145
  509DIO    H1628500   2.733   2.521   1.853
  509DIO    H1728501   2.594   2.517   1.959
  509DIO    H1828502   2.603   2.770   1.976
  509DIO    H1928503   2.734   2.769   1.855
  509DIO    H2028504   2.574   2.709   1.812
  510DIO     F128505   9.591   6.650   7.982
  510DIO     C128506   9.513   6.698   8.081
  510DIO     C228507   9.369   6.699   8.064
  510DIO     C328508   9.280   6.752   8.170
  510DIO     C428509   9.346   6.801   8.294
  510DIO     C528510   9.490   6.798   8.308
  510DIO     F228511   9.545   6.840   8.424
  510DIO     C628512   9.574   6.747   8.203
  510DIO     F328513   9.707   6.746   8.217
  510DIO     C728514   9.134   6.756   8.155
  510DIO     C828515   9.057   6.879   8.181
  510DIO     C928516   8.912   6.883   8.166
  510DIO    C1028517   8.839   6.761   8.135
  510DIO    C1128518   8.912   6.640   8.101
  510DIO    C1228519   9.056   6.637   8.113
  510DIO     F428520   9.121   6.522   8.087
  510DIO     O128521   8.707   6.776   8.099
  510DIO    C1328522   8.613   6.679   8.132
  510DIO     O228523   8.612   6.586   8.216
  510DIO    C1428524   8.483   6.702   8.066
  510DIO    C1528525   8.417   6.834   8.067
  510DIO     F528526   8.480   6.941   8.121
  510DIO    C1628527   8.286   6.857   8.008
  510DIO    C1728528   8.211   6.746   7.951
  510DIO    C1828529   8.279   6.619   7.933
  510DIO    C1928530   8.411   6.597   7.991
  510DIO     F628531   8.473   6.481   7.958
  510DIO    C2028532   8.070   6.765   7.900
  510DIO     O328533   8.000   6.874   7.962
  510DIO    C2128534   7.956   6.842   8.094
  510DIO    C2228535   7.868   6.718   8.094
  510DIO    C2328536   7.948   6.606   8.029
  510DIO     O428537   7.993   6.645   7.899
  510DIO    C2428538   7.735   6.739   8.018
  510DIO    C2528539   7.644   6.851   8.071
  510DIO    C2628540   7.606   6.835   8.217
  510DIO     H128541   9.326   6.661   7.973
  510DIO     H228542   9.285   6.832   8.379
  510DIO     H328543   9.108   6.971   8.206
  510DIO     H428544   8.857   6.975   8.177
  510DIO     H528545   8.857   6.551   8.072
  510DIO     H628546   8.248   6.958   8.005
  510DIO     H728547   8.236   6.540   7.873
  510DIO     H828548   8.080   6.794   7.795
  510DIO     H928549   8.043   6.827   8.159
  510DIO    H1028550   7.904   6.929   8.134
  510DIO    H1128551   7.845   6.690   8.197
  510DIO    H1228552   7.887   6.516   8.017
  510DIO    H1328553   8.034   6.579   8.091
  510DIO    H1428554   7.755   6.759   7.912
  510DIO    H1528555   7.678   6.645   8.021
  510DIO    H1628556   7.691   6.948   8.056
  510DIO    H1728557   7.552   6.852   8.010
  510DIO    H1828558   7.562   6.736   8.236
  510DIO    H1928559   7.692   6.847   8.283
  510DIO    H2028560   7.532   6.911   8.245
  511DIO     F128561   2.130   8.259   9.830
  511DIO     C128562   2.053   8.359   9.876
  511DIO     C228563   1.908   8.349   9.862
  511DIO     C328564   1.820   8.458   9.911
  511DIO     C428565   1.885   8.574   9.975
  511DIO     C528566   2.029   8.581   9.988
  511DIO     F228567   2.085   8.686  10.051
  511DIO     C628568   2.113   8.474   9.939
  511DIO     F328569   2.247   8.482   9.951
  511DIO     C728570   1.673   8.450   9.896
  511DIO     C828571   1.596   8.562   9.838
  511DIO     C928572   1.451   8.555   9.824
  511DIO    C1028573   1.379   8.442   9.877
  511DIO    C1128574   1.451   8.326   9.929
  511DIO    C1228575   1.595   8.332   9.940
  511DIO     F428576   1.660   8.227   9.992
  511DIO     O128577   1.247   8.431   9.840
  511DIO    C1328578   1.152   8.377   9.927
  511DIO     O228579   1.151   8.358  10.051
  511DIO    C1428580   1.023   8.352   9.862
  511DIO    C1528581   0.957   8.455   9.779
  511DIO     F528582   1.019   8.572   9.753
  511DIO    C1628583   0.826   8.436   9.719
  511DIO    C1728584   0.750   8.314   9.745
  511DIO    C1828585   0.819   8.204   9.812
  511DIO    C1928586   0.951   8.224   9.871
  511DIO     F628587   1.013   8.114   9.918
  511DIO    C2028588   0.609   8.296   9.693
  511DIO     O328589   0.540   8.420   9.673
  511DIO    C2128590   0.496   8.479   9.795
  511DIO    C2228591   0.407   8.383   9.873
  511DIO    C2328592   0.488   8.255   9.894
  511DIO     O428593   0.532   8.202   9.769
  511DIO    C2428594   0.274   8.351   9.801
  511DIO    C2528595   0.184   8.470   9.771
  511DIO    C2628596   0.145   8.551   9.894
  511DIO     H128597   1.866   8.261   9.816
  511DIO     H228598   1.825   8.651  10.021
  511DIO     H328599   1.648   8.649   9.800
  511DIO     H428600   1.396   8.634   9.774
  511DIO     H528601   1.397   8.240   9.963
  511DIO     H628602   0.788   8.512   9.652
  511DIO     H728603   0.776   8.105   9.815
  511DIO     H828604   0.619   8.252   9.593
  511DIO     H928605   0.583   8.509   9.855
  511DIO    H1028606   0.443   8.571   9.770
  511DIO    H1128607   0.385   8.426   9.971
  511DIO    H1228608   0.427   8.178   9.942
  511DIO    H1328609   0.574   8.273   9.959
  511DIO    H1428610   0.294   8.299   9.706
  511DIO    H1528611   0.218   8.280   9.863
  511DIO    H1628612   0.231   8.536   9.698
  511DIO    H1728613   0.092   8.433   9.724
  511DIO    H1828614   0.101   8.487   9.971
  511DIO    H1928615   0.232   8.602   9.937
  511DIO    H2028616   0.072   8.627   9.868
  512DIO     F128617   4.414   1.306   1.104
  512DIO     C128618   4.336   1.394   1.170
  512DIO     C228619   4.192   1.387   1.154
  512DIO     C328620   4.104   1.484   1.223
  512DIO     C428621   4.169   1.585   1.310
  512DIO     C528622   4.313   1.589   1.324
  512DIO     F228623   4.369   1.679   1.407
  512DIO     C628624   4.397   1.494   1.254
  512DIO     F328625   4.531   1.500   1.267
  512DIO     C728626   3.957   1.480   1.207
  512DIO     C828627   3.880   1.601   1.173
  512DIO     C928628   3.735   1.597   1.158
  512DIO    C1028629   3.663   1.475   1.187
  512DIO    C1128630   3.735   1.352   1.214
  512DIO    C1228631   3.879   1.355   1.226
  512DIO     F428632   3.944   1.241   1.257
  512DIO     O128633   3.531   1.472   1.148
  512DIO    C1328634   3.436   1.401   1.223
  512DIO     O228635   3.435   1.358   1.341
  512DIO    C1428636   3.307   1.390   1.154
  512DIO    C1528637   3.241   1.508   1.093
  512DIO     F528638   3.303   1.628   1.092
  512DIO    C1628639   3.110   1.501   1.031
  512DIO    C1728640   3.034   1.376   1.032
  512DIO    C1828641   3.103   1.255   1.076
  512DIO    C1928642   3.234   1.263   1.137
  512DIO     F628643   3.297   1.145   1.162
  512DIO    C2028644   2.893   1.369   0.978
  512DIO     O328645   2.824   1.494   0.982
  512DIO    C2128646   2.780   1.528   1.114
  512DIO    C2228647   2.691   1.418   1.171
  512DIO    C2328648   2.772   1.289   1.166
  512DIO     O428649   2.816   1.262   1.033
  512DIO    C2428650   2.558   1.401   1.094
  512DIO    C2528651   2.468   1.524   1.089
  512DIO    C2628652   2.429   1.579   1.226
  512DIO     H128653   4.150   1.311   1.091
  512DIO     H228654   4.108   1.651   1.370
  512DIO     H328655   3.932   1.694   1.153
  512DIO     H428656   3.680   1.684   1.125
  512DIO     H528657   3.681   1.260   1.230
  512DIO     H628658   3.072   1.589   0.980
  512DIO     H728659   3.060   1.157   1.058
  512DIO     H828660   2.903   1.346   0.871
  512DIO     H928661   2.867   1.545   1.178
  512DIO    H1028662   2.727   1.623   1.108
  512DIO    H1128663   2.669   1.441   1.276
  512DIO    H1228664   2.711   1.204   1.198
  512DIO    H1328665   2.858   1.293   1.233
  512DIO    H1428666   2.578   1.369   0.991
  512DIO    H1528667   2.502   1.319   1.141
  512DIO    H1628668   2.515   1.604   1.030
  512DIO    H1728669   2.376   1.497   1.035
  512DIO    H1828670   2.385   1.500   1.288
  512DIO    H1928671   2.516   1.620   1.278
  512DIO    H2028672   2.356   1.659   1.215
  513DIO     F128673   6.430   6.492   9.631
  513DIO     C128674   6.352   6.428   9.541
  513DIO     C228675   6.208   6.430   9.558
  513DIO     C328676   6.119   6.359   9.463
  513DIO     C428677   6.185   6.289   9.350
  513DIO     C528678   6.329   6.290   9.335
  513DIO     F228679   6.385   6.229   9.229
  513DIO     C628680   6.413   6.359   9.430
  513DIO     F328681   6.547   6.357   9.416
  513DIO     C728682   5.973   6.358   9.479
  513DIO     C828683   5.896   6.232   9.475
  513DIO     C928684   5.751   6.232   9.490
  513DIO    C1028685   5.679   6.357   9.500
  513DIO    C1128686   5.751   6.482   9.511
  513DIO    C1228687   5.895   6.482   9.499
  513DIO     F428688   5.960   6.600   9.505
  513DIO     O128689   5.546   6.348   9.538
  513DIO    C1328690   5.452   6.437   9.488
  513DIO     O228691   5.451   6.515   9.389
  513DIO    C1428692   5.323   6.427   9.557
  513DIO    C1528693   5.257   6.297   9.579
  513DIO     F528694   5.319   6.182   9.544
  513DIO    C1628695   5.126   6.285   9.641
  513DIO    C1728696   5.050   6.404   9.678
  513DIO    C1828697   5.119   6.532   9.673
  513DIO    C1928698   5.250   6.544   9.612
  513DIO     F628699   5.313   6.663   9.624
  513DIO    C2028700   4.909   6.393   9.732
  513DIO     O328701   4.840   6.276   9.689
  513DIO    C2128702   4.796   6.284   9.554
  513DIO    C2228703   4.707   6.406   9.532
  513DIO    C2328704   4.788   6.528   9.577
  513DIO     O428705   4.832   6.512   9.711
  513DIO    C2428706   4.574   6.399   9.611
  513DIO    C2528707   4.484   6.280   9.578
  513DIO    C2628708   4.445   6.270   9.432
  513DIO     H128709   6.166   6.484   9.642
  513DIO     H228710   6.124   6.244   9.272
  513DIO     H328711   5.947   6.138   9.466
  513DIO     H428712   5.696   6.139   9.496
  513DIO     H528713   5.697   6.575   9.524
  513DIO     H628714   5.088   6.185   9.662
  513DIO     H728715   5.076   6.620   9.719
  513DIO     H828716   4.919   6.383   9.840
  513DIO     H928717   4.883   6.287   9.487
  513DIO    H1028718   4.743   6.191   9.530
  513DIO    H1128719   4.684   6.416   9.425
  513DIO    H1228720   4.727   6.618   9.572
  513DIO    H1328721   4.874   6.544   9.511
  513DIO    H1428722   4.594   6.398   9.719
  513DIO    H1528723   4.518   6.491   9.591
  513DIO    H1628724   4.531   6.186   9.610
  513DIO    H1728725   4.392   6.289   9.638
  513DIO    H1828726   4.401   6.363   9.396
  513DIO    H1928727   4.532   6.246   9.369
  513DIO    H2028728   4.371   6.190   9.417
  514DIO     F128729   3.009   3.969   8.138
  514DIO     C128730   2.931   4.014   8.038
  514DIO     C228731   2.787   4.000   8.048
  514DIO     C328732   2.698   4.046   7.939
  514DIO     C428733   2.764   4.109   7.821
  514DIO     C528734   2.908   4.121   7.814
  514DIO     F228735   2.963   4.183   7.708
  514DIO     C628736   2.992   4.075   7.922
  514DIO     F328737   3.125   4.086   7.913
  514DIO     C728738   2.552   4.032   7.946
  514DIO     C828739   2.475   3.972   7.835
  514DIO     C928740   2.330   3.958   7.842
  514DIO    C1028741   2.257   4.013   7.955
  514DIO    C1128742   2.330   4.066   8.069
  514DIO    C1228743   2.474   4.077   8.063
  514DIO     F428744   2.539   4.132   8.168
  514DIO     O128745   2.125   3.976   7.967
  514DIO    C1328746   2.031   4.064   8.019
  514DIO     O228747   2.030   4.189   8.035
  514DIO    C1428748   1.902   3.999   8.045
  514DIO    C1528749   1.835   3.914   7.943
  514DIO     F528750   1.898   3.887   7.827
  514DIO    C1628751   1.704   3.855   7.964
  514DIO    C1728752   1.629   3.883   8.085
  514DIO    C1828753   1.697   3.953   8.194
  514DIO    C1928754   1.829   4.010   8.173
  514DIO     F628755   1.892   4.060   8.282
  514DIO    C2028756   1.488   3.832   8.104
  514DIO     O328757   1.418   3.809   7.981
  514DIO    C2128758   1.375   3.930   7.919
  514DIO    C2228759   1.286   4.010   8.014
  514DIO    C2328760   1.366   4.033   8.142
  514DIO     O428761   1.411   3.909   8.196
  514DIO    C2428762   1.153   3.939   8.047
  514DIO    C2528763   1.062   3.907   7.928
  514DIO    C2628764   1.024   4.028   7.846
  514DIO     H128765   2.744   3.955   8.136
  514DIO     H228766   2.703   4.153   7.743
  514DIO     H328767   2.526   3.932   7.749
  514DIO     H428768   2.275   3.907   7.765
  514DIO     H528769   2.275   4.102   8.155
  514DIO     H628770   1.666   3.787   7.889
  514DIO     H728771   1.655   3.957   8.293
  514DIO     H828772   1.498   3.733   8.150
  514DIO     H928773   1.461   3.989   7.888
  514DIO    H1028774   1.322   3.904   7.827
  514DIO    H1128775   1.263   4.107   7.969
  514DIO    H1228776   1.305   4.083   8.217
  514DIO    H1328777   1.453   4.098   8.122
  514DIO    H1428778   1.173   3.845   8.101
  514DIO    H1528779   1.096   4.002   8.117
  514DIO    H1628780   1.110   3.832   7.864
  514DIO    H1728781   0.970   3.860   7.966
  514DIO    H1828782   0.980   4.106   7.908
  514DIO    H1928783   1.110   4.070   7.793
  514DIO    H2028784   0.950   4.000   7.770
  515DIO     F128785   9.557   0.702   3.340
  515DIO     C128786   9.479   0.762   3.248
  515DIO     C228787   9.335   0.747   3.256
  515DIO     C328788   9.246   0.809   3.155
  515DIO     C428789   9.312   0.889   3.049
  515DIO     C528790   9.456   0.902   3.043
  515DIO     F228791   9.512   0.979   2.947
  515DIO     C628792   9.540   0.840   3.143
  515DIO     F328793   9.674   0.852   3.136
  515DIO     C728794   9.100   0.794   3.160
  515DIO     C828795   9.023   0.751   3.041
  515DIO     C928796   8.878   0.737   3.046
  515DIO    C1028797   8.806   0.774   3.166
  515DIO    C1128798   8.878   0.809   3.287
  515DIO    C1228799   9.022   0.821   3.283
  515DIO     F428800   9.087   0.859   3.395
  515DIO     O128801   8.673   0.735   3.172
  515DIO    C1328802   8.579   0.814   3.237
  515DIO     O228803   8.578   0.935   3.272
  515DIO    C1428804   8.450   0.746   3.253
  515DIO    C1528805   8.383   0.678   3.139
  515DIO     F528806   8.446   0.668   3.020
  515DIO    C1628807   8.253   0.616   3.151
  515DIO    C1728808   8.177   0.626   3.275
  515DIO    C1828809   8.246   0.677   3.393
  515DIO    C1928810   8.377   0.738   3.381
  515DIO     F628811   8.440   0.770   3.497
  515DIO    C2028812   8.036   0.572   3.285
  515DIO     O328813   7.966   0.568   3.160
  515DIO    C2128814   7.923   0.697   3.118
  515DIO    C2228815   7.834   0.762   3.224
  515DIO    C2328816   7.915   0.765   3.353
  515DIO     O428817   7.959   0.634   3.389
  515DIO    C2428818   7.701   0.686   3.246
  515DIO    C2528819   7.610   0.673   3.123
  515DIO    C2628820   7.572   0.805   3.060
  515DIO     H128821   9.293   0.688   3.336
  515DIO     H228822   9.251   0.945   2.978
  515DIO     H328823   9.074   0.725   2.950
  515DIO     H428824   8.823   0.698   2.962
  515DIO     H528825   8.824   0.831   3.378
  515DIO     H628826   8.215   0.560   3.066
  515DIO     H728827   8.203   0.666   3.492
  515DIO     H828828   8.046   0.467   3.316
  515DIO     H928829   8.009   0.760   3.097
  515DIO    H1028830   7.870   0.685   3.023
  515DIO    H1128831   7.811   0.865   3.194
  515DIO    H1228832   7.854   0.802   3.436
  515DIO    H1328833   8.001   0.832   3.344
  515DIO    H1428834   7.721   0.585   3.284
  515DIO    H1528835   7.645   0.738   3.325
  515DIO    H1628836   7.658   0.609   3.048
  515DIO    H1728837   7.519   0.621   3.154
  515DIO    H1828838   7.528   0.873   3.134
  515DIO    H1928839   7.659   0.855   3.015
  515DIO    H2028840   7.498   0.789   2.981
  516DIO     F128841   9.110   9.295   0.206
  516DIO     C128842   9.032   9.236   0.300
  516DIO     C228843   8.888   9.251   0.292
  516DIO     C328844   8.799   9.191   0.393
  516DIO     C428845   8.865   9.112   0.501
  516DIO     C528846   9.009   9.099   0.506
  516DIO     F228847   9.064   9.023   0.603
  516DIO     C628848   9.093   9.160   0.406
  516DIO     F328849   9.226   9.147   0.413
  516DIO     C728850   8.653   9.206   0.388
  516DIO     C828851   8.576   9.250   0.506
  516DIO     C928852   8.431   9.264   0.501
  516DIO    C1028853   8.358   9.225   0.382
  516DIO    C1128854   8.431   9.189   0.261
  516DIO    C1228855   8.575   9.177   0.266
  516DIO     F428856   8.640   9.138   0.154
  516DIO     O128857   8.226   9.264   0.375
  516DIO    C1328858   8.132   9.184   0.311
  516DIO     O228859   8.131   9.063   0.278
  516DIO    C1428860   8.003   9.252   0.295
  516DIO    C1528861   7.936   9.322   0.407
  516DIO     F528862   7.999   9.333   0.526
  516DIO    C1628863   7.805   9.383   0.395
  516DIO    C1728864   7.730   9.372   0.271
  516DIO    C1828865   7.798   9.319   0.154
  516DIO    C1928866   7.930   9.259   0.166
  516DIO     F628867   7.993   9.225   0.051
  516DIO    C2028868   7.589   9.426   0.260
  516DIO     O328869   7.519   9.431   0.385
  516DIO    C2128870   7.476   9.303   0.429
  516DIO    C2228871   7.387   9.237   0.324
  516DIO    C2328872   7.467   9.232   0.194
  516DIO     O428873   7.512   9.362   0.157
  516DIO    C2428874   7.254   9.312   0.301
  516DIO    C2528875   7.163   9.327   0.423
  516DIO    C2628876   7.125   9.195   0.488
  516DIO     H128877   8.845   9.308   0.210
  516DIO     H228878   8.804   9.057   0.572
  516DIO     H328879   8.627   9.277   0.597
  516DIO     H428880   8.376   9.304   0.585
  516DIO     H528881   8.376   9.165   0.171
  516DIO     H628882   7.767   9.441   0.478
  516DIO     H728883   7.756   9.328   0.055
  516DIO     H828884   7.599   9.530   0.228
  516DIO     H928885   7.562   9.240   0.451
  516DIO    H1028886   7.423   9.316   0.523
  516DIO    H1128887   7.364   9.134   0.355
  516DIO    H1228888   7.406   9.193   0.112
  516DIO    H1328889   7.554   9.165   0.204
  516DIO    H1428890   7.274   9.412   0.261
  516DIO    H1528891   7.197   9.259   0.223
  516DIO    H1628892   7.211   9.392   0.498
  516DIO    H1728893   7.071   9.379   0.392
  516DIO    H1828894   7.081   9.127   0.415
  516DIO    H1928895   7.211   9.146   0.534
  516DIO    H2028896   7.051   9.212   0.567
  517DIO     F128897   4.144   7.228   5.315
  517DIO     C128898   4.067   7.132   5.261
  517DIO     C228899   3.923   7.140   5.276
  517DIO     C328900   3.834   7.036   5.220
  517DIO     C428901   3.899   6.925   5.148
  517DIO     C528902   4.044   6.918   5.134
  517DIO     F228903   4.099   6.818   5.064
  517DIO     C628904   4.127   7.022   5.190
  517DIO     F328905   4.261   7.014   5.178
  517DIO     C728906   3.687   7.042   5.235
  517DIO     C828907   3.610   6.926   5.285
  517DIO     C928908   3.466   6.932   5.299
  517DIO    C1028909   3.393   7.049   5.254
  517DIO    C1128910   3.465   7.168   5.212
  517DIO    C1228911   3.610   7.163   5.200
  517DIO     F428912   3.674   7.272   5.155
  517DIO     O128913   3.261   7.058   5.293
  517DIO    C1328914   3.166   7.118   5.210
  517DIO     O228915   3.165   7.145   5.087
  517DIO    C1428916   3.037   7.137   5.277
  517DIO    C1528917   2.971   7.029   5.352
  517DIO     F528918   3.033   6.911   5.369
  517DIO    C1628919   2.840   7.044   5.413
  517DIO    C1728920   2.764   7.168   5.395
  517DIO    C1828921   2.833   7.282   5.336
  517DIO    C1928922   2.965   7.266   5.277
  517DIO     F628923   3.027   7.379   5.237
  517DIO    C2028924   2.624   7.181   5.449
  517DIO     O328925   2.554   7.057   5.460
  517DIO    C2128926   2.510   7.006   5.334
  517DIO    C2228927   2.421   7.108   5.263
  517DIO    C2328928   2.502   7.237   5.251
  517DIO     O428929   2.546   7.280   5.380
  517DIO    C2428930   2.288   7.135   5.337
  517DIO    C2528931   2.198   7.013   5.358
  517DIO    C2628932   2.159   6.942   5.230
  517DIO     H128933   3.880   7.225   5.329
  517DIO     H228934   3.839   6.851   5.096
  517DIO     H328935   3.662   6.837   5.317
  517DIO     H428936   3.410   6.850   5.344
  517DIO     H528937   3.411   7.257   5.184
  517DIO     H628938   2.802   6.964   5.474
  517DIO     H728939   2.790   7.381   5.341
  517DIO     H828940   2.633   7.219   5.551
  517DIO     H928941   2.597   6.981   5.273
  517DIO    H1028942   2.457   6.912   5.353
  517DIO    H1128943   2.399   7.071   5.162
  517DIO    H1228944   2.441   7.317   5.208
  517DIO    H1328945   2.588   7.223   5.185
  517DIO    H1428946   2.308   7.180   5.435
  517DIO    H1528947   2.232   7.210   5.280
  517DIO    H1628948   2.245   6.942   5.427
  517DIO    H1728949   2.106   7.047   5.408
  517DIO    H1828950   2.115   7.011   5.158
  517DIO    H1928951   2.246   6.893   5.184
  517DIO    H2028952   2.086   6.863   5.251
  518DIO     F128953   6.581   4.141   9.870
  518DIO     C128954   6.503   4.250   9.885
  518DIO     C228955   6.359   4.237   9.874
  518DIO     C328956   6.270   4.354   9.888
  518DIO     C428957   6.336   4.484   9.915
  518DIO     C528958   6.480   4.495   9.925
  518DIO     F228959   6.535   4.614   9.953
  518DIO     C628960   6.564   4.378   9.910
  518DIO     F328961   6.698   4.390   9.919
  518DIO     C728962   6.124   4.343   9.876
  518DIO     C828963   6.047   4.433   9.787
  518DIO     C928964   5.902   4.422   9.776
  518DIO    C1028965   5.829   4.329   9.861
  518DIO    C1128966   5.902   4.235   9.944
  518DIO    C1228967   6.046   4.244   9.953
  518DIO     F428968   6.111   4.158  10.035
  518DIO     O128969   5.697   4.307   9.828
  518DIO    C1328970   5.603   4.282   9.927
  518DIO     O228971   5.602   4.302  10.052
  518DIO    C1428972   5.474   4.239   9.872
  518DIO    C1528973   5.407   4.313   9.762
  518DIO     F528974   5.470   4.416   9.703
  518DIO    C1628975   5.277   4.276   9.711
  518DIO    C1728976   5.201   4.167   9.773
  518DIO    C1828977   5.270   4.083   9.870
  518DIO    C1928978   5.401   4.119   9.919
  518DIO     F628979   5.464   4.028   9.998
  518DIO    C2028980   5.060   4.135   9.728
  518DIO     O328981   4.990   4.247   9.672
  518DIO    C2128982   4.947   4.340   9.771
  518DIO    C2228983   4.858   4.272   9.874
  518DIO    C2328984   4.939   4.156   9.932
  518DIO     O428985   4.983   4.068   9.829
  518DIO    C2428986   4.725   4.219   9.815
  518DIO    C2528987   4.634   4.325   9.751
  518DIO    C2628988   4.596   4.438   9.844
  518DIO     H128989   6.316   4.139   9.856
  518DIO     H228990   6.275   4.572   9.935
  518DIO     H328991   6.098   4.504   9.725
  518DIO     H428992   5.847   4.482   9.705
  518DIO     H528993   5.848   4.162  10.003
  518DIO     H628994   5.238   4.328   9.625
  518DIO     H728995   5.227   3.989   9.902
  518DIO     H828996   5.070   4.063   9.646
  518DIO     H928997   5.033   4.386   9.819
  518DIO    H1028998   4.894   4.421   9.719
  518DIO    H1128999   4.835   4.343   9.955
  518DIO    H1229000   4.877   4.097  10.001
  518DIO    H1329001   5.025   4.193   9.989
  518DIO    H1429002   4.745   4.142   9.740
  518DIO    H1529003   4.669   4.170   9.895
  518DIO    H1629004   4.682   4.366   9.661
  518DIO    H1729005   4.543   4.275   9.717
  518DIO    H1829006   4.552   4.400   9.937
  518DIO    H1929007   4.682   4.500   9.870
  518DIO    H2029008   4.522   4.503   9.796
  519DIO     F129009   2.142   5.562   1.062
  519DIO     C129010   2.065   5.452   1.062
  519DIO     C229011   1.921   5.467   1.071
  519DIO     C329012   1.832   5.348   1.074
  519DIO     C429013   1.897   5.216   1.065
  519DIO     C529014   2.042   5.204   1.057
  519DIO     F229015   2.097   5.082   1.045
  519DIO     C629016   2.125   5.321   1.055
  519DIO     F329017   2.259   5.309   1.048
  519DIO     C729018   1.685   5.361   1.084
  519DIO     C829019   1.608   5.285   1.184
  519DIO     C929020   1.464   5.297   1.194
  519DIO    C1029021   1.391   5.377   1.097
  519DIO    C1129022   1.464   5.459   1.001
  519DIO    C1229023   1.608   5.449   0.994
  519DIO     F429024   1.673   5.522   0.901
  519DIO     O129025   1.259   5.403   1.126
  519DIO    C1329026   1.164   5.414   1.025
  519DIO     O229027   1.163   5.378   0.904
  519DIO    C1429028   1.035   5.465   1.073
  519DIO    C1529029   0.969   5.407   1.192
  519DIO     F529030   1.032   5.313   1.265
  519DIO    C1629031   0.838   5.451   1.237
  519DIO    C1729032   0.762   5.549   1.161
  519DIO    C1829033   0.831   5.620   1.054
  519DIO    C1929034   0.963   5.577   1.010
  519DIO     F629035   1.025   5.656   0.919
  519DIO    C2029036   0.622   5.588   1.201
  519DIO     O329037   0.552   5.485   1.272
  519DIO    C2129038   0.508   5.379   1.188
  519DIO    C2229039   0.419   5.432   1.076
  519DIO    C2329040   0.500   5.539   1.002
  519DIO     O429041   0.544   5.640   1.092
  519DIO    C2429042   0.287   5.492   1.127
  519DIO    C2529043   0.196   5.397   1.205
  519DIO    C2629044   0.157   5.271   1.129
  519DIO     H129045   1.878   5.566   1.075
  519DIO     H229046   1.837   5.126   1.057
  519DIO     H329047   1.660   5.223   1.256
  519DIO     H429048   1.409   5.248   1.273
  519DIO     H529049   1.409   5.523   0.933
  519DIO     H629050   0.800   5.411   1.331
  519DIO     H729051   0.788   5.708   1.009
  519DIO     H829052   0.631   5.670   1.272
  519DIO     H929053   0.595   5.326   1.146
  519DIO    H1029054   0.455   5.306   1.250
  519DIO    H1129055   0.397   5.351   1.006
  519DIO    H1229056   0.439   5.587   0.925
  519DIO    H1329057   0.586   5.494   0.951
  519DIO    H1429058   0.306   5.579   1.190
  519DIO    H1529059   0.230   5.529   1.040
  519DIO    H1629060   0.243   5.369   1.300
  519DIO    H1729061   0.104   5.451   1.232
  519DIO    H1829062   0.114   5.296   1.032
  519DIO    H1929063   0.244   5.206   1.112
  519DIO    H2029064   0.084   5.214   1.186
  520DIO     F129065   9.574   3.525   4.890
  520DIO     C129066   9.497   3.509   4.999
  520DIO     C229067   9.353   3.519   4.986
  520DIO     C329068   9.264   3.504   5.103
  520DIO     C429069   9.329   3.476   5.233
  520DIO     C529070   9.474   3.466   5.243
  520DIO     F229071   9.529   3.435   5.362
  520DIO     C629072   9.557   3.481   5.127
  520DIO     F329073   9.691   3.473   5.138
  520DIO     C729074   9.117   3.516   5.092
  520DIO     C829075   9.040   3.604   5.183
  520DIO     C929076   8.896   3.615   5.172
  520DIO    C1029077   8.823   3.531   5.078
  520DIO    C1129078   8.895   3.449   4.983
  520DIO    C1229079   9.040   3.441   4.992
  520DIO     F429080   9.104   3.360   4.905
  520DIO     O129081   8.691   3.564   5.057
  520DIO    C1329082   8.596   3.466   5.030
  520DIO     O229083   8.595   3.341   5.048
  520DIO    C1429084   8.467   3.521   4.988
  520DIO    C1529085   8.401   3.630   5.063
  520DIO     F529086   8.463   3.688   5.167
  520DIO    C1629087   8.270   3.682   5.027
  520DIO    C1729088   8.194   3.621   4.918
  520DIO    C1829089   8.263   3.525   4.832
  520DIO    C1929090   8.395   3.475   4.867
  520DIO     F629091   8.457   3.398   4.776
  520DIO    C2029092   8.054   3.666   4.886
  520DIO     O329093   7.984   3.721   4.998
  520DIO    C2129094   7.940   3.621   5.090
  520DIO    C2229095   7.851   3.519   5.021
  520DIO    C2329096   7.932   3.462   4.904
  520DIO     O429097   7.976   3.567   4.818
  520DIO    C2429098   7.718   3.578   4.969
  520DIO    C2529099   7.628   3.642   5.075
  520DIO    C2629100   7.589   3.547   5.188
  520DIO     H129101   9.310   3.539   4.888
  520DIO     H229102   9.269   3.454   5.320
  520DIO     H329103   9.092   3.666   5.255
  520DIO     H429104   8.840   3.686   5.233
  520DIO     H529105   8.841   3.392   4.909
  520DIO     H629106   8.232   3.768   5.080
  520DIO     H729107   8.220   3.494   4.738
  520DIO     H829108   8.063   3.749   4.815
  520DIO     H929109   8.027   3.573   5.136
  520DIO    H1029110   7.887   3.672   5.172
  520DIO    H1129111   7.829   3.437   5.091
  520DIO    H1229112   7.871   3.394   4.844
  520DIO    H1329113   8.018   3.405   4.940
  520DIO    H1429114   7.738   3.654   4.892
  520DIO    H1529115   7.662   3.499   4.919
  520DIO    H1629116   7.675   3.731   5.117
  520DIO    H1729117   7.536   3.676   5.026
  520DIO    H1829118   7.545   3.455   5.149
  520DIO    H1929119   7.676   3.521   5.249
  520DIO    H2029120   7.516   3.594   5.253
  521DIO     F129121   8.387   0.702   0.187
  521DIO     C129122   8.309   0.719   0.295
  521DIO     C229123   8.165   0.725   0.280
  521DIO     C329124   8.076   0.745   0.396
  521DIO     C429125   8.142   0.756   0.529
  521DIO     C529126   8.286   0.750   0.542
  521DIO     F229127   8.341   0.756   0.665
  521DIO     C629128   8.370   0.730   0.426
  521DIO     F329129   8.504   0.725   0.439
  521DIO     C729130   7.930   0.753   0.382
  521DIO     C829131   7.853   0.864   0.443
  521DIO     C929132   7.708   0.871   0.430
  521DIO    C1029133   7.635   0.764   0.365
  521DIO    C1129134   7.708   0.657   0.298
  521DIO    C1229135   7.852   0.651   0.309
  521DIO     F429136   7.917   0.549   0.250
  521DIO     O129137   7.503   0.789   0.335
  521DIO    C1329138   7.409   0.687   0.338
  521DIO     O229139   7.408   0.573   0.392
  521DIO    C1429140   7.280   0.727   0.282
  521DIO    C1529141   7.213   0.854   0.321
  521DIO     F529142   7.276   0.940   0.404
  521DIO    C1629143   7.083   0.892   0.271
  521DIO    C1729144   7.007   0.802   0.185
  521DIO    C1829145   7.076   0.686   0.131
  521DIO    C1929146   7.207   0.648   0.180
  521DIO     F629147   7.270   0.547   0.115
  521DIO    C2029148   6.866   0.836   0.141
  521DIO     O329149   6.796   0.922   0.232
  521DIO    C2129150   6.753   0.853   0.349
  521DIO    C2229151   6.664   0.735   0.314
  521DIO    C2329152   6.745   0.646   0.219
  521DIO     O429153   6.789   0.721   0.105
  521DIO    C2429154   6.531   0.777   0.247
  521DIO    C2529155   6.440   0.868   0.329
  521DIO    C2629156   6.402   0.811   0.465
  521DIO     H129157   8.122   0.715   0.181
  521DIO     H229158   8.081   0.761   0.619
  521DIO     H329159   7.904   0.944   0.494
  521DIO     H429160   7.653   0.957   0.467
  521DIO     H529161   7.654   0.580   0.245
  521DIO     H629162   7.044   0.990   0.297
  521DIO     H729163   7.033   0.628   0.050
  521DIO     H829164   6.876   0.894   0.049
  521DIO     H929165   6.839   0.820   0.408
  521DIO    H1029166   6.700   0.925   0.412
  521DIO    H1129167   6.641   0.677   0.404
  521DIO    H1229168   6.683   0.563   0.182
  521DIO    H1329169   6.831   0.602   0.270
  521DIO    H1429170   6.551   0.826   0.151
  521DIO    H1529171   6.475   0.686   0.222
  521DIO    H1629172   6.488   0.966   0.343
  521DIO    H1729173   6.349   0.887   0.272
  521DIO    H1829174   6.358   0.711   0.454
  521DIO    H1929175   6.488   0.804   0.531
  521DIO    H2029176   6.328   0.876   0.513
  522DIO     F129177   9.643   8.873   0.469
  522DIO     C129178   9.566   8.764   0.463
  522DIO     C229179   9.422   8.778   0.473
  522DIO     C329180   9.333   8.659   0.470
  522DIO     C429181   9.398   8.527   0.455
  522DIO     C529182   9.543   8.516   0.446
  522DIO     F229183   9.598   8.394   0.428
  522DIO     C629184   9.626   8.633   0.449
  522DIO     F329185   9.760   8.621   0.442
  522DIO     C729186   9.186   8.672   0.480
  522DIO     C829187   9.109   8.590   0.577
  522DIO     C929188   8.965   8.602   0.587
  522DIO    C1029189   8.892   8.687   0.494
  522DIO    C1129190   8.965   8.773   0.403
  522DIO    C1229191   9.109   8.764   0.395
  522DIO     F429192   9.174   8.841   0.306
  522DIO     O129193   8.760   8.711   0.525
  522DIO    C1329194   8.665   8.728   0.424
  522DIO     O229195   8.664   8.697   0.302
  522DIO    C1429196   8.536   8.775   0.475
  522DIO    C1529197   8.470   8.712   0.591
  522DIO     F529198   8.533   8.614   0.659
  522DIO    C1629199   8.339   8.753   0.638
  522DIO    C1729200   8.263   8.856   0.567
  522DIO    C1829201   8.332   8.931   0.463
  522DIO    C1929202   8.464   8.891   0.417
  522DIO     F629203   8.526   8.974   0.331
  522DIO    C2029204   8.123   8.892   0.609
  522DIO     O329205   8.053   8.786   0.675
  522DIO    C2129206   8.009   8.684   0.585
  522DIO    C2229207   7.920   8.743   0.476
  522DIO    C2329208   8.001   8.853   0.408
  522DIO     O429209   8.045   8.949   0.503
  522DIO    C2429210   7.788   8.800   0.530
  522DIO    C2529211   7.697   8.701   0.603
  522DIO    C2629212   7.658   8.579   0.521
  522DIO     H129213   9.379   8.877   0.482
  522DIO     H229214   9.338   8.438   0.442
  522DIO     H329215   9.161   8.525   0.646
  522DIO     H429216   8.910   8.549   0.663
  522DIO     H529217   8.910   8.841   0.338
  522DIO     H629218   8.301   8.709   0.729
  522DIO     H729219   8.289   9.022   0.423
  522DIO     H829220   8.132   8.971   0.684
  522DIO     H929221   8.096   8.634   0.541
  522DIO    H1029222   7.956   8.608   0.643
  522DIO    H1129223   7.898   8.665   0.402
  522DIO    H1229224   7.940   8.905   0.333
  522DIO    H1329225   8.087   8.811   0.354
  522DIO    H1429226   7.807   8.884   0.597
  522DIO    H1529227   7.731   8.842   0.445
  522DIO    H1629228   7.744   8.668   0.697
  522DIO    H1729229   7.605   8.754   0.633
  522DIO    H1829230   7.615   8.609   0.425
  522DIO    H1929231   7.745   8.515   0.501
  522DIO    H2029232   7.585   8.519   0.575
  523DIO     F129233   9.955   2.422   5.456
  523DIO     C129234   9.877   2.507   5.525
  523DIO     C229235   9.733   2.501   5.509
  523DIO     C329236   9.644   2.594   5.582
  523DIO     C429237   9.710   2.691   5.673
  523DIO     C529238   9.854   2.695   5.687
  523DIO     F229239   9.910   2.782   5.774
  523DIO     C629240   9.938   2.603   5.614
  523DIO     F329241  10.072   2.609   5.627
  523DIO     C729242   9.498   2.591   5.567
  523DIO     C829243   9.421   2.714   5.537
  523DIO     C929244   9.276   2.710   5.523
  523DIO    C1029245   9.204   2.587   5.546
  523DIO    C1129246   9.276   2.463   5.568
  523DIO    C1229247   9.420   2.466   5.580
  523DIO     F429248   9.485   2.351   5.606
  523DIO     O129249   9.071   2.586   5.507
  523DIO    C1329250   8.977   2.512   5.579
  523DIO     O229251   8.976   2.464   5.695
  523DIO    C1429252   8.848   2.504   5.509
  523DIO    C1529253   8.781   2.624   5.454
  523DIO     F529254   8.844   2.744   5.457
  523DIO    C1629255   8.651   2.620   5.391
  523DIO    C1729256   8.575   2.495   5.387
  523DIO    C1829257   8.644   2.372   5.425
  523DIO    C1929258   8.775   2.377   5.487
  523DIO     F629259   8.838   2.259   5.506
  523DIO    C2029260   8.434   2.491   5.332
  523DIO     O329261   8.364   2.615   5.343
  523DIO    C2129262   8.321   2.643   5.475
  523DIO    C2229263   8.232   2.531   5.528
  523DIO    C2329264   8.313   2.402   5.517
  523DIO     O429265   8.357   2.381   5.383
  523DIO    C2429266   8.099   2.517   5.450
  523DIO    C2529267   8.008   2.641   5.450
  523DIO    C2629268   7.970   2.689   5.589
  523DIO     H129269   9.691   2.427   5.443
  523DIO     H229270   9.649   2.755   5.737
  523DIO     H329271   9.472   2.807   5.521
  523DIO     H429272   9.221   2.799   5.493
  523DIO     H529273   9.222   2.370   5.580
  523DIO     H629274   8.613   2.710   5.345
  523DIO     H729275   8.601   2.275   5.404
  523DIO     H829276   8.444   2.472   5.225
  523DIO     H929277   8.407   2.658   5.540
  523DIO    H1029278   8.268   2.739   5.474
  523DIO    H1129279   8.209   2.549   5.634
  523DIO    H1229280   8.252   2.316   5.545
  523DIO    H1329281   8.399   2.404   5.585
  523DIO    H1429282   8.119   2.490   5.346
  523DIO    H1529283   8.043   2.434   5.493
  523DIO    H1629284   8.056   2.723   5.395
  523DIO    H1729285   7.917   2.616   5.395
  523DIO    H1829286   7.926   2.608   5.648
  523DIO    H1929287   8.057   2.728   5.643
  523DIO    H2029288   7.896   2.770   5.582
  524DIO     F129289   7.629   2.098   0.218
  524DIO     C129290   7.552   1.997   0.261
  524DIO     C229291   7.408   2.014   0.263
  524DIO     C329292   7.319   1.906   0.312
  524DIO     C429293   7.384   1.781   0.356
  524DIO     C529294   7.529   1.766   0.353
  524DIO     F229295   7.584   1.649   0.390
  524DIO     C629296   7.612   1.874   0.305
  524DIO     F329297   7.746   1.860   0.304
  524DIO     C729298   7.173   1.922   0.316
  524DIO     C829299   7.095   1.891   0.439
  524DIO     C929300   6.951   1.906   0.443
  524DIO    C1029301   6.878   1.942   0.322
  524DIO    C1129302   6.951   1.980   0.202
  524DIO    C1229303   7.095   1.967   0.199
  524DIO     F429304   7.160   1.998   0.085
  524DIO     O129305   6.746   1.977   0.339
  524DIO    C1329306   6.651   1.948   0.241
  524DIO     O229307   6.651   1.867   0.145
  524DIO    C1429308   6.522   2.013   0.266
  524DIO    C1529309   6.456   2.006   0.398
  524DIO     F529310   6.519   1.948   0.502
  524DIO    C1629311   6.325   2.064   0.423
  524DIO    C1729312   6.249   2.125   0.314
  524DIO    C1829313   6.318   2.148   0.188
  524DIO    C1929314   6.450   2.091   0.164
  524DIO     F629315   6.512   2.128   0.050
  524DIO    C2029316   6.109   2.176   0.336
  524DIO     O329317   6.039   2.109   0.442
  524DIO    C2129318   5.995   1.979   0.405
  524DIO    C2229319   5.906   1.984   0.281
  524DIO    C2329320   5.987   2.053   0.172
  524DIO     O429321   6.031   2.182   0.215
  524DIO    C2429322   5.774   2.059   0.305
  524DIO    C2529323   5.683   2.002   0.414
  524DIO    C2629324   5.645   1.856   0.393
  524DIO     H129325   7.365   2.107   0.228
  524DIO     H229326   7.324   1.695   0.384
  524DIO     H329327   7.147   1.862   0.529
  524DIO     H429328   6.896   1.891   0.535
  524DIO     H529329   6.896   2.012   0.114
  524DIO     H629330   6.287   2.064   0.524
  524DIO     H729331   6.275   2.212   0.111
  524DIO     H829332   6.118   2.280   0.369
  524DIO     H929333   6.082   1.914   0.388
  524DIO    H1029334   5.943   1.936   0.491
  524DIO    H1129335   5.884   1.882   0.249
  524DIO    H1229336   5.926   2.068   0.082
  524DIO    H1329337   6.073   1.992   0.142
  524DIO    H1429338   5.794   2.164   0.329
  524DIO    H1529339   5.717   2.060   0.211
  524DIO    H1629340   5.730   2.013   0.513
  524DIO    H1729341   5.591   2.062   0.418
  524DIO    H1829342   5.601   1.841   0.294
  524DIO    H1929343   5.731   1.790   0.403
  524DIO    H2029344   5.571   1.826   0.468
  525DIO     F129345   5.738   8.272   1.741
  525DIO     C129346   5.661   8.360   1.675
  525DIO     C229347   5.517   8.343   1.677
  525DIO     C329348   5.428   8.436   1.604
  525DIO     C429349   5.493   8.548   1.532
  525DIO     C529350   5.638   8.563   1.532
  525DIO     F229351   5.693   8.668   1.469
  525DIO     C629352   5.721   8.469   1.604
  525DIO     F329353   5.855   8.483   1.602
  525DIO     C729354   5.281   8.420   1.604
  525DIO     C829355   5.204   8.421   1.478
  525DIO     C929356   5.060   8.406   1.477
  525DIO    C1029357   4.987   8.400   1.603
  525DIO    C1129358   5.059   8.391   1.728
  525DIO    C1229359   5.204   8.403   1.728
  525DIO     F429360   5.268   8.400   1.847
  525DIO     O129361   4.855   8.361   1.595
  525DIO    C1329362   4.760   8.413   1.683
  525DIO     O229363   4.759   8.514   1.758
  525DIO    C1429364   4.631   8.344   1.674
  525DIO    C1529365   4.565   8.319   1.544
  525DIO     F529366   4.627   8.351   1.429
  525DIO    C1629367   4.434   8.257   1.534
  525DIO    C1729368   4.358   8.223   1.654
  525DIO    C1829369   4.427   8.230   1.782
  525DIO    C1929370   4.559   8.291   1.792
  525DIO     F629371   4.621   8.282   1.912
  525DIO    C2029372   4.218   8.169   1.645
  525DIO     O329373   4.148   8.209   1.526
  525DIO    C2129374   4.104   8.344   1.531
  525DIO    C2229375   4.015   8.368   1.653
  525DIO    C2329376   4.096   8.326   1.775
  525DIO     O429377   4.140   8.191   1.763
  525DIO    C2429378   3.882   8.289   1.647
  525DIO    C2529379   3.792   8.319   1.528
  525DIO    C2629380   3.753   8.466   1.514
  525DIO     H129381   5.474   8.260   1.733
  525DIO     H229382   5.433   8.625   1.485
  525DIO     H329383   5.256   8.428   1.383
  525DIO     H429384   5.004   8.399   1.385
  525DIO     H529385   5.005   8.380   1.821
  525DIO     H629386   4.396   8.233   1.435
  525DIO     H729387   4.384   8.186   1.871
  525DIO     H829388   4.227   8.060   1.637
  525DIO     H929389   4.191   8.411   1.533
  525DIO    H1029390   4.051   8.365   1.438
  525DIO    H1129391   3.993   8.475   1.660
  525DIO    H1229392   4.035   8.333   1.866
  525DIO    H1329393   4.182   8.392   1.790
  525DIO    H1429394   3.902   8.182   1.649
  525DIO    H1529395   3.826   8.311   1.739
  525DIO    H1629396   3.839   8.285   1.435
  525DIO    H1729397   3.700   8.260   1.538
  525DIO    H1829398   3.709   8.504   1.607
  525DIO    H1929399   3.840   8.528   1.489
  525DIO    H2029400   3.680   8.478   1.434
  526DIO     F129401   9.271   2.312   1.668
  526DIO     C129402   9.193   2.244   1.755
  526DIO     C229403   9.049   2.260   1.749
  526DIO     C329404   8.961   2.190   1.844
  526DIO     C429405   9.026   2.102   1.943
  526DIO     C529406   9.170   2.088   1.948
  526DIO     F229407   9.226   2.003   2.037
  526DIO     C629408   9.254   2.158   1.854
  526DIO     F329409   9.388   2.145   1.859
  526DIO     C729410   8.814   2.205   1.840
  526DIO     C829411   8.737   2.238   1.962
  526DIO     C929412   8.592   2.253   1.958
  526DIO    C1029413   8.520   2.226   1.836
  526DIO    C1129414   8.592   2.201   1.712
  526DIO    C1229415   8.736   2.189   1.716
  526DIO     F429416   8.801   2.160   1.601
  526DIO     O129417   8.388   2.265   1.833
  526DIO    C1329418   8.293   2.191   1.762
  526DIO     O229419   8.292   2.074   1.717
  526DIO    C1429420   8.164   2.260   1.752
  526DIO    C1529421   8.098   2.319   1.870
  526DIO     F529422   8.160   2.319   1.990
  526DIO    C1629423   7.967   2.382   1.864
  526DIO    C1729424   7.891   2.382   1.739
  526DIO    C1829425   7.960   2.341   1.618
  526DIO    C1929426   8.091   2.279   1.624
  526DIO     F629427   8.154   2.257   1.507
  526DIO    C2029428   7.750   2.437   1.734
  526DIO     O329429   7.681   2.430   1.858
  526DIO    C2129430   7.637   2.298   1.890
  526DIO    C2229431   7.548   2.242   1.779
  526DIO    C2329432   7.629   2.250   1.650
  526DIO     O429433   7.673   2.383   1.626
  526DIO    C2429434   7.415   2.320   1.763
  526DIO    C2529435   7.325   2.323   1.887
  526DIO    C2629436   7.286   2.186   1.939
  526DIO     H129437   9.007   2.325   1.673
  526DIO     H229438   8.965   2.040   2.009
  526DIO     H329439   8.789   2.257   2.055
  526DIO     H429440   8.537   2.285   2.046
  526DIO     H529441   8.538   2.186   1.620
  526DIO     H629442   7.929   2.431   1.953
  526DIO     H729443   7.917   2.359   1.520
  526DIO     H829444   7.760   2.544   1.712
  526DIO     H929445   7.724   2.233   1.906
  526DIO    H1029446   7.584   2.303   1.986
  526DIO    H1129447   7.526   2.137   1.800
  526DIO    H1229448   7.568   2.219   1.564
  526DIO    H1329449   7.715   2.182   1.653
  526DIO    H1429450   7.435   2.423   1.733
  526DIO    H1529451   7.359   2.275   1.681
  526DIO    H1629452   7.372   2.381   1.967
  526DIO    H1729453   7.233   2.377   1.861
  526DIO    H1829454   7.242   2.124   1.859
  526DIO    H1929455   7.373   2.133   1.980
  526DIO    H2029456   7.213   2.195   2.019
  527DIO     F129457   9.734   5.282   6.901
  527DIO     C129458   9.656   5.182   6.855
  527DIO     C229459   9.512   5.192   6.869
  527DIO     C329460   9.423   5.083   6.821
  527DIO     C429461   9.489   4.967   6.757
  527DIO     C529462   9.633   4.959   6.745
  527DIO     F229463   9.688   4.854   6.682
  527DIO     C629464   9.717   5.067   6.793
  527DIO     F329465   9.851   5.058   6.781
  527DIO     C729466   9.277   5.090   6.835
  527DIO     C829467   9.200   4.979   6.895
  527DIO     C929468   9.055   4.986   6.908
  527DIO    C1029469   8.982   5.099   6.854
  527DIO    C1129470   9.055   5.214   6.803
  527DIO    C1229471   9.199   5.208   6.792
  527DIO     F429472   9.264   5.314   6.738
  527DIO     O129473   8.850   5.111   6.892
  527DIO    C1329474   8.756   5.164   6.805
  527DIO     O229475   8.755   5.182   6.680
  527DIO    C1429476   8.627   5.189   6.870
  527DIO    C1529477   8.560   5.086   6.953
  527DIO     F529478   8.623   4.970   6.980
  527DIO    C1629479   8.430   5.106   7.013
  527DIO    C1729480   8.354   5.228   6.986
  527DIO    C1829481   8.423   5.337   6.918
  527DIO    C1929482   8.554   5.317   6.860
  527DIO     F629483   8.617   5.427   6.811
  527DIO    C2029484   8.213   5.246   7.038
  527DIO     O329485   8.143   5.123   7.059
  527DIO    C2129486   8.100   5.063   6.937
  527DIO    C2229487   8.011   5.158   6.858
  527DIO    C2329488   8.092   5.286   6.837
  527DIO     O429489   8.136   5.339   6.961
  527DIO    C2429490   7.878   5.191   6.930
  527DIO    C2529491   7.787   5.071   6.961
  527DIO    C2629492   7.749   4.990   6.838
  527DIO     H129493   9.469   5.280   6.915
  527DIO     H229494   9.428   4.889   6.712
  527DIO     H329495   9.251   4.892   6.933
  527DIO     H429496   9.000   4.908   6.959
  527DIO     H529497   9.001   5.301   6.768
  527DIO     H629498   8.391   5.031   7.080
  527DIO     H729499   8.380   5.437   6.915
  527DIO     H829500   8.223   5.291   7.137
  527DIO     H929501   8.186   5.032   6.878
  527DIO    H1029502   8.047   4.970   6.963
  527DIO    H1129503   7.988   5.114   6.760
  527DIO    H1229504   8.030   5.362   6.788
  527DIO    H1329505   8.178   5.268   6.772
  527DIO    H1429506   7.898   5.243   7.024
  527DIO    H1529507   7.822   5.261   6.868
  527DIO    H1629508   7.835   5.006   7.035
  527DIO    H1729509   7.696   5.109   7.008
  527DIO    H1829510   7.705   5.054   6.761
  527DIO    H1929511   7.835   4.938   6.796
  527DIO    H2029512   7.675   4.914   6.865
  528DIO     F129513   7.481   9.837   9.099
  528DIO     C129514   7.404   9.727   9.102
  528DIO     C229515   7.260   9.742   9.110
  528DIO     C329516   7.171   9.623   9.115
  528DIO     C429517   7.236   9.490   9.109
  528DIO     C529518   7.381   9.478   9.101
  528DIO     F229519   7.436   9.356   9.092
  528DIO     C629520   7.464   9.596   9.097
  528DIO     F329521   7.598   9.583   9.090
  528DIO     C729522   7.024   9.636   9.125
  528DIO     C829523   6.947   9.562   9.227
  528DIO     C929524   6.803   9.574   9.236
  528DIO    C1029525   6.730   9.652   9.138
  528DIO    C1129526   6.803   9.733   9.041
  528DIO    C1229527   6.947   9.722   9.034
  528DIO     F429528   7.012   9.793   8.939
  528DIO     O129529   6.598   9.679   9.167
  528DIO    C1329530   6.503   9.688   9.065
  528DIO     O229531   6.502   9.649   8.945
  528DIO    C1429532   6.374   9.739   9.112
  528DIO    C1529533   6.308   9.684   9.232
  528DIO     F529534   6.371   9.591   9.307
  528DIO    C1629535   6.177   9.729   9.277
  528DIO    C1729536   6.101   9.826   9.199
  528DIO    C1829537   6.170   9.894   9.090
  528DIO    C1929538   6.302   9.851   9.047
  528DIO     F629539   6.364   9.927   8.955
  528DIO    C2029540   5.961   9.865   9.238
  528DIO     O329541   5.891   9.763   9.311
  528DIO    C2129542   5.847   9.656   9.229
  528DIO    C2229543   5.758   9.707   9.116
  528DIO    C2329544   5.839   9.812   9.040
  528DIO     O429545   5.883   9.915   9.128
  528DIO    C2429546   5.626   9.768   9.166
  528DIO    C2529547   5.535   9.674   9.246
  528DIO    C2629548   5.496   9.547   9.172
  528DIO     H129549   7.217   9.841   9.113
  528DIO     H229550   7.176   9.401   9.103
  528DIO     H329551   6.999   9.501   9.300
  528DIO     H429552   6.748   9.526   9.316
  528DIO     H529553   6.748   9.795   8.971
  528DIO     H629554   6.139   9.690   9.371
  528DIO     H729555   6.127   9.982   9.043
  528DIO     H829556   5.970   9.949   9.307
  528DIO     H929557   5.934   9.603   9.188
  528DIO    H1029558   5.794   9.584   9.292
  528DIO    H1129559   5.736   9.624   9.047
  528DIO    H1229560   5.778   9.859   8.962
  528DIO    H1329561   5.925   9.767   8.990
  528DIO    H1429562   5.645   9.856   9.227
  528DIO    H1529563   5.569   9.804   9.078
  528DIO    H1629564   5.582   9.648   9.341
  528DIO    H1729565   5.443   9.729   9.271
  528DIO    H1829566   5.453   9.570   9.074
  528DIO    H1929567   5.583   9.482   9.156
  528DIO    H2029568   5.423   9.491   9.230
  529DIO     F129569   9.550   0.719   6.750
  529DIO     C129570   9.472   0.706   6.860
  529DIO     C229571   9.328   0.716   6.846
  529DIO     C329572   9.239   0.705   6.964
  529DIO     C429573   9.305   0.680   7.095
  529DIO     C529574   9.449   0.671   7.105
  529DIO     F229575   9.505   0.644   7.225
  529DIO     C629576   9.533   0.683   6.988
  529DIO     F329577   9.667   0.675   7.000
  529DIO     C729578   9.093   0.716   6.953
  529DIO     C829579   9.016   0.807   7.040
  529DIO     C929580   8.871   0.818   7.030
  529DIO    C1029581   8.799   0.731   6.938
  529DIO    C1129582   8.871   0.647   6.845
  529DIO    C1229583   9.015   0.638   6.854
  529DIO     F429584   9.080   0.554   6.771
  529DIO     O129585   8.666   0.764   6.916
  529DIO    C1329586   8.572   0.664   6.892
  529DIO     O229587   8.571   0.540   6.914
  529DIO    C1429588   8.443   0.718   6.849
  529DIO    C1529589   8.377   0.829   6.920
  529DIO     F529590   8.439   0.891   7.023
  529DIO    C1629591   8.246   0.880   6.882
  529DIO    C1729592   8.170   0.816   6.775
  529DIO    C1829593   8.239   0.718   6.692
  529DIO    C1929594   8.370   0.669   6.729
  529DIO     F629595   8.433   0.589   6.640
  529DIO    C2029596   8.029   0.860   6.742
  529DIO     O329597   7.960   0.919   6.853
  529DIO    C2129598   7.916   0.822   6.947
  529DIO    C2229599   7.827   0.717   6.881
  529DIO    C2329600   7.908   0.657   6.766
  529DIO     O429601   7.952   0.759   6.677
  529DIO    C2429602   7.694   0.775   6.828
  529DIO    C2529603   7.604   0.841   6.932
  529DIO    C2629604   7.565   0.750   7.047
  529DIO     H129605   9.286   0.733   6.748
  529DIO     H229606   9.244   0.661   7.183
  529DIO     H329607   9.067   0.871   7.111
  529DIO     H429608   8.816   0.890   7.088
  529DIO     H529609   8.817   0.586   6.774
  529DIO     H629610   8.208   0.968   6.933
  529DIO     H729611   8.196   0.684   6.599
  529DIO     H829612   8.039   0.941   6.668
  529DIO     H929613   8.003   0.774   6.995
  529DIO    H1029614   7.863   0.875   7.027
  529DIO    H1129615   7.804   0.638   6.953
  529DIO    H1229616   7.847   0.587   6.709
  529DIO    H1329617   7.994   0.601   6.804
  529DIO    H1429618   7.714   0.848   6.749
  529DIO    H1529619   7.638   0.694   6.780
  529DIO    H1629620   7.651   0.932   6.971
  529DIO    H1729621   7.512   0.874   6.882
  529DIO    H1829622   7.521   0.657   7.011
  529DIO    H1929623   7.652   0.726   7.110
  529DIO    H2029624   7.491   0.800   7.111
  530DIO     F129625   5.627   3.557   2.052
  530DIO     C129626   5.549   3.482   1.972
  530DIO     C229627   5.405   3.486   1.989
  530DIO     C329628   5.317   3.403   1.904
  530DIO     C429629   5.382   3.319   1.800
  530DIO     C529630   5.526   3.317   1.786
  530DIO     F229631   5.582   3.243   1.688
  530DIO     C629632   5.610   3.399   1.871
  530DIO     F329633   5.744   3.395   1.857
  530DIO     C729634   5.170   3.405   1.920
  530DIO     C829635   5.093   3.279   1.932
  530DIO     C929636   4.948   3.280   1.947
  530DIO    C1029637   4.876   3.406   1.940
  530DIO    C1129638   4.948   3.531   1.936
  530DIO    C1229639   5.092   3.530   1.923
  530DIO     F429640   5.157   3.648   1.914
  530DIO     O129641   4.744   3.402   1.979
  530DIO    C1329642   4.649   3.484   1.919
  530DIO     O229643   4.648   3.548   1.810
  530DIO    C1429644   4.520   3.483   1.988
  530DIO    C1529645   4.454   3.356   2.027
  530DIO     F529646   4.516   3.238   2.007
  530DIO    C1629647   4.323   3.352   2.090
  530DIO    C1729648   4.247   3.475   2.111
  530DIO    C1829649   4.316   3.602   2.089
  530DIO    C1929650   4.447   3.606   2.028
  530DIO     F629651   4.510   3.725   2.024
  530DIO    C2029652   4.106   3.472   2.165
  530DIO     O329653   4.037   3.350   2.139
  530DIO    C2129654   3.993   3.340   2.003
  530DIO    C2229655   3.904   3.459   1.966
  530DIO    C2329656   3.985   3.585   1.995
  530DIO     O429657   4.029   3.587   2.130
  530DIO    C2429658   3.771   3.462   2.045
  530DIO    C2529659   3.681   3.339   2.028
  530DIO    C2629660   3.642   3.310   1.884
  530DIO     H129661   5.363   3.550   2.065
  530DIO     H229662   5.321   3.264   1.729
  530DIO     H329663   5.145   3.184   1.935
  530DIO     H429664   4.893   3.189   1.965
  530DIO     H529665   4.894   3.625   1.936
  530DIO     H629666   4.285   3.257   2.124
  530DIO     H729667   4.273   3.695   2.123
  530DIO     H829668   4.116   3.476   2.275
  530DIO     H929669   4.080   3.335   1.937
  530DIO    H1029670   3.940   3.245   1.992
  530DIO    H1129671   3.882   3.455   1.859
  530DIO    H1229672   3.924   3.674   1.978
  530DIO    H1329673   4.071   3.593   1.927
  530DIO    H1429674   3.791   3.475   2.152
  530DIO    H1529675   3.715   3.551   2.014
  530DIO    H1629676   3.728   3.251   2.072
  530DIO    H1729677   3.589   3.357   2.086
  530DIO    H1829678   3.598   3.399   1.836
  530DIO    H1929679   3.729   3.279   1.825
  530DIO    H2029680   3.569   3.230   1.881
  531DIO     F129681   3.572   3.132   7.761
  531DIO     C129682   3.494   3.167   7.657
  531DIO     C229683   3.350   3.154   7.668
  531DIO     C329684   3.261   3.190   7.555
  531DIO     C429685   3.327   3.242   7.432
  531DIO     C529686   3.471   3.254   7.424
  531DIO     F229687   3.526   3.305   7.312
  531DIO     C629688   3.555   3.217   7.536
  531DIO     F329689   3.689   3.228   7.526
  531DIO     C729690   3.115   3.177   7.564
  531DIO     C829691   3.038   3.107   7.459
  531DIO     C929692   2.893   3.094   7.467
  531DIO    C1029693   2.820   3.159   7.574
  531DIO    C1129694   2.893   3.223   7.683
  531DIO    C1229695   3.037   3.233   7.676
  531DIO     F429696   3.102   3.297   7.776
  531DIO     O129697   2.688   3.123   7.589
  531DIO    C1329698   2.594   3.215   7.633
  531DIO     O229699   2.593   3.341   7.638
  531DIO    C1429700   2.465   3.153   7.665
  531DIO    C1529701   2.398   3.060   7.572
  531DIO     F529702   2.461   3.021   7.458
  531DIO    C1629703   2.268   3.002   7.598
  531DIO    C1729704   2.192   3.042   7.716
  531DIO    C1829705   2.261   3.121   7.818
  531DIO    C1929706   2.392   3.176   7.792
  531DIO     F629707   2.455   3.236   7.896
  531DIO    C2029708   2.051   2.992   7.739
  531DIO     O329709   1.981   2.958   7.619
  531DIO    C2129710   1.938   3.073   7.547
  531DIO    C2229711   1.849   3.161   7.633
  531DIO    C2329712   1.930   3.196   7.758
  531DIO     O429713   1.974   3.078   7.824
  531DIO    C2429714   1.716   3.093   7.673
  531DIO    C2529715   1.625   3.051   7.557
  531DIO    C2629716   1.587   3.164   7.464
  531DIO     H129717   3.307   3.118   7.760
  531DIO     H229718   3.266   3.279   7.350
  531DIO     H329719   3.089   3.059   7.376
  531DIO     H429720   2.838   3.036   7.395
  531DIO     H529721   2.839   3.266   7.766
  531DIO     H629722   2.229   2.927   7.530
  531DIO     H729723   2.218   3.134   7.916
  531DIO     H829724   2.061   2.898   7.794
  531DIO     H929725   2.024   3.129   7.510
  531DIO    H1029726   1.885   3.038   7.457
  531DIO    H1129727   1.826   3.254   7.579
  531DIO    H1229728   1.868   3.253   7.829
  531DIO    H1329729   2.016   3.259   7.733
  531DIO    H1429730   1.736   3.005   7.735
  531DIO    H1529731   1.660   3.163   7.737
  531DIO    H1629732   1.673   2.970   7.500
  531DIO    H1729733   1.534   3.008   7.600
  531DIO    H1829734   1.543   3.248   7.519
  531DIO    H1929735   1.673   3.201   7.408
  531DIO    H2029736   1.513   3.129   7.391
  532DIO     F129737   7.510   4.438   0.505
  532DIO     C129738   7.432   4.471   0.400
  532DIO     C229739   7.288   4.458   0.411
  532DIO     C329740   7.199   4.491   0.297
  532DIO     C429741   7.265   4.539   0.173
  532DIO     C529742   7.409   4.551   0.165
  532DIO     F229743   7.465   4.599   0.052
  532DIO     C629744   7.493   4.518   0.277
  532DIO     F329745   7.627   4.528   0.267
  532DIO     C729746   7.053   4.478   0.307
  532DIO     C829747   6.976   4.405   0.204
  532DIO     C929748   6.831   4.392   0.212
  532DIO    C1029749   6.759   4.461   0.318
  532DIO    C1129750   6.831   4.527   0.425
  532DIO    C1229751   6.975   4.537   0.417
  532DIO     F429752   7.040   4.604   0.515
  532DIO     O129753   6.626   4.425   0.334
  532DIO    C1329754   6.532   4.518   0.375
  532DIO     O229755   6.531   4.644   0.376
  532DIO    C1429756   6.403   4.457   0.408
  532DIO    C1529757   6.336   4.361   0.318
  532DIO     F529758   6.399   4.319   0.206
  532DIO    C1629759   6.206   4.304   0.346
  532DIO    C1729760   6.130   4.347   0.463
  532DIO    C1829761   6.199   4.429   0.562
  532DIO    C1929762   6.330   4.484   0.535
  532DIO     F629763   6.393   4.546   0.637
  532DIO    C2029764   5.989   4.298   0.487
  532DIO     O329765   5.919   4.261   0.368
  532DIO    C2129766   5.876   4.374   0.292
  532DIO    C2229767   5.787   4.464   0.376
  532DIO    C2329768   5.868   4.502   0.501
  532DIO     O429769   5.912   4.386   0.570
  532DIO    C2429770   5.654   4.398   0.418
  532DIO    C2529771   5.563   4.351   0.304
  532DIO    C2629772   5.525   4.462   0.207
  532DIO     H129773   7.246   4.424   0.505
  532DIO     H229774   7.204   4.574   0.090
  532DIO     H329775   7.027   4.355   0.123
  532DIO     H429776   6.776   4.332   0.142
  532DIO     H529777   6.777   4.573   0.506
  532DIO     H629778   6.168   4.228   0.279
  532DIO     H729779   6.156   4.445   0.660
  532DIO     H829780   5.999   4.205   0.545
  532DIO     H929781   5.962   4.429   0.254
  532DIO    H1029782   5.823   4.336   0.204
  532DIO    H1129783   5.764   4.556   0.320
  532DIO    H1229784   5.807   4.561   0.570
  532DIO    H1329785   5.954   4.565   0.474
  532DIO    H1429786   5.674   4.311   0.483
  532DIO    H1529787   5.598   4.469   0.480
  532DIO    H1629788   5.611   4.269   0.249
  532DIO    H1729789   5.472   4.310   0.347
  532DIO    H1829790   5.481   4.547   0.260
  532DIO    H1929791   5.612   4.498   0.150
  532DIO    H2029792   5.451   4.425   0.135
  533DIO     F129793   7.222   3.573   7.190
  533DIO     C129794   7.145   3.474   7.240
  533DIO     C229795   7.000   3.491   7.241
  533DIO     C329796   6.912   3.387   7.296
  533DIO     C429797   6.977   3.264   7.348
  533DIO     C529798   7.121   3.250   7.345
  533DIO     F229799   7.177   3.135   7.389
  533DIO     C629800   7.205   3.354   7.291
  533DIO     F329801   7.339   3.340   7.291
  533DIO     C729802   6.765   3.402   7.299
  533DIO     C829803   6.688   3.379   7.424
  533DIO     C929804   6.543   3.394   7.426
  533DIO    C1029805   6.471   3.423   7.304
  533DIO    C1129806   6.543   3.453   7.182
  533DIO    C1229807   6.687   3.441   7.180
  533DIO     F429808   6.752   3.465   7.064
  533DIO     O129809   6.339   3.459   7.319
  533DIO    C1329810   6.244   3.424   7.223
  533DIO     O229811   6.243   3.337   7.131
  533DIO    C1429812   6.115   3.490   7.244
  533DIO    C1529813   6.049   3.492   7.376
  533DIO     F529814   6.111   3.440   7.484
  533DIO    C1629815   5.918   3.551   7.397
  533DIO    C1729816   5.842   3.606   7.285
  533DIO    C1829817   5.911   3.620   7.157
  533DIO    C1929818   6.043   3.562   7.137
  533DIO     F629819   6.105   3.593   7.021
  533DIO    C2029820   5.701   3.657   7.303
  533DIO     O329821   5.632   3.597   7.413
  533DIO    C2129822   5.588   3.465   7.385
  533DIO    C2229823   5.499   3.462   7.261
  533DIO    C2329824   5.580   3.525   7.147
  533DIO     O429825   5.624   3.656   7.183
  533DIO    C2429826   5.366   3.539   7.280
  533DIO    C2529827   5.276   3.488   7.392
  533DIO    C2629828   5.237   3.342   7.380
  533DIO     H129829   6.958   3.582   7.200
  533DIO     H229830   6.917   3.180   7.380
  533DIO     H329831   6.740   3.356   7.516
  533DIO     H429832   6.488   3.385   7.519
  533DIO     H529833   6.489   3.480   7.092
  533DIO     H629834   5.880   3.557   7.498
  533DIO     H729835   5.868   3.680   7.077
  533DIO     H829836   5.711   3.763   7.330
  533DIO     H929837   5.675   3.399   7.371
  533DIO    H1029838   5.535   3.427   7.473
  533DIO    H1129839   5.477   3.358   7.234
  533DIO    H1229840   5.519   3.534   7.057
  533DIO    H1329841   5.666   3.462   7.121
  533DIO    H1429842   5.386   3.645   7.297
  533DIO    H1529843   5.310   3.534   7.186
  533DIO    H1629844   5.323   3.506   7.490
  533DIO    H1729845   5.184   3.549   7.392
  533DIO    H1829846   5.193   3.321   7.282
  533DIO    H1929847   5.324   3.276   7.394
  533DIO    H2029848   5.164   3.316   7.456
  534DIO     F129849   9.021   8.009   7.368
  534DIO     C129850   8.944   7.951   7.462
  534DIO     C229851   8.800   7.966   7.454
  534DIO     C329852   8.711   7.906   7.556
  534DIO     C429853   8.776   7.829   7.664
  534DIO     C529854   8.921   7.815   7.670
  534DIO     F229855   8.976   7.741   7.767
  534DIO     C629856   9.004   7.876   7.569
  534DIO     F329857   9.138   7.863   7.576
  534DIO     C729858   8.565   7.921   7.550
  534DIO     C829859   8.487   7.966   7.668
  534DIO     C929860   8.343   7.981   7.663
  534DIO    C1029861   8.270   7.941   7.544
  534DIO    C1129862   8.343   7.903   7.424
  534DIO    C1229863   8.487   7.891   7.428
  534DIO     F429864   8.552   7.851   7.317
  534DIO     O129865   8.138   7.979   7.537
  534DIO    C1329866   8.043   7.899   7.474
  534DIO     O229867   8.043   7.777   7.441
  534DIO    C1429868   7.914   7.967   7.457
  534DIO    C1529869   7.848   8.037   7.568
  534DIO     F529870   7.911   8.050   7.687
  534DIO    C1629871   7.717   8.099   7.555
  534DIO    C1729872   7.641   8.087   7.431
  534DIO    C1829873   7.710   8.032   7.315
  534DIO    C1929874   7.842   7.972   7.328
  534DIO     F629875   7.904   7.937   7.213
  534DIO    C2029876   7.501   8.140   7.420
  534DIO     O329877   7.431   8.147   7.545
  534DIO    C2129878   7.387   8.019   7.590
  534DIO    C2229879   7.298   7.952   7.486
  534DIO    C2329880   7.379   7.946   7.356
  534DIO     O429881   7.423   8.076   7.318
  534DIO    C2429882   7.166   8.027   7.462
  534DIO    C2529883   7.075   8.043   7.584
  534DIO    C2629884   7.037   7.912   7.650
  534DIO     H129885   8.757   8.022   7.371
  534DIO     H229886   8.716   7.774   7.736
  534DIO     H329887   8.539   7.995   7.759
  534DIO     H429888   8.288   8.022   7.746
  534DIO     H529889   8.288   7.879   7.333
  534DIO     H629890   7.679   8.157   7.638
  534DIO     H729891   7.667   8.041   7.216
  534DIO     H829892   7.510   8.244   7.387
  534DIO     H929893   7.474   7.956   7.613
  534DIO    H1029894   7.335   8.033   7.685
  534DIO    H1129895   7.276   7.849   7.518
  534DIO    H1229896   7.318   7.906   7.275
  534DIO    H1329897   7.465   7.879   7.367
  534DIO    H1429898   7.186   8.127   7.421
  534DIO    H1529899   7.109   7.973   7.384
  534DIO    H1629900   7.122   8.109   7.658
  534DIO    H1729901   6.983   8.094   7.552
  534DIO    H1829902   6.993   7.842   7.578
  534DIO    H1929903   7.123   7.863   7.697
  534DIO    H2029904   6.963   7.930   7.729
  535DIO     F129905   2.513   9.252   6.606
  535DIO     C129906   2.435   9.291   6.708
  535DIO     C229907   2.291   9.294   6.692
  535DIO     C329908   2.202   9.339   6.801
  535DIO     C429909   2.268   9.378   6.928
  535DIO     C529910   2.412   9.374   6.942
  535DIO     F229911   2.468   9.407   7.061
  535DIO     C629912   2.496   9.331   6.833
  535DIO     F329913   2.630   9.329   6.847
  535DIO     C729914   2.056   9.344   6.786
  535DIO     C829915   1.979   9.465   6.821
  535DIO     C929916   1.834   9.469   6.807
  535DIO    C1029917   1.762   9.350   6.766
  535DIO    C1129918   1.834   9.232   6.723
  535DIO    C1229919   1.978   9.228   6.736
  535DIO     F429920   2.043   9.116   6.700
  535DIO     O129921   1.629   9.368   6.731
  535DIO    C1329922   1.535   9.269   6.757
  535DIO     O229923   1.534   9.170   6.834
  535DIO    C1429924   1.406   9.297   6.693
  535DIO    C1529925   1.340   9.429   6.704
  535DIO     F529926   1.402   9.531   6.766
  535DIO    C1629927   1.209   9.455   6.647
  535DIO    C1729928   1.133   9.349   6.582
  535DIO    C1829929   1.202   9.224   6.555
  535DIO    C1929930   1.333   9.197   6.610
  535DIO     F629931   1.396   9.085   6.569
  535DIO    C2029932   0.992   9.373   6.532
  535DIO     O329933   0.923   9.476   6.603
  535DIO    C2129934   0.879   9.434   6.732
  535DIO    C2229935   0.790   9.311   6.723
  535DIO    C2329936   0.871   9.204   6.649
  535DIO     O429937   0.915   9.253   6.522
  535DIO    C2429938   0.657   9.337   6.648
  535DIO    C2529939   0.567   9.445   6.709
  535DIO    C2629940   0.528   9.418   6.854
  535DIO     H129941   2.249   9.263   6.597
  535DIO     H229942   2.207   9.402   7.015
  535DIO     H329943   2.030   9.554   6.854
  535DIO     H429944   1.779   9.561   6.824
  535DIO     H529945   1.780   9.145   6.688
  535DIO     H629946   1.171   9.557   6.652
  535DIO     H729947   1.159   9.150   6.488
  535DIO     H829948   1.002   9.410   6.430
  535DIO     H929949   0.966   9.415   6.796
  535DIO    H1029950   0.826   9.518   6.778
  535DIO    H1129951   0.767   9.274   6.823
  535DIO    H1229952   0.810   9.115   6.631
  535DIO    H1329953   0.957   9.172   6.709
  535DIO    H1429954   0.677   9.365   6.544
  535DIO    H1529955   0.601   9.243   6.644
  535DIO    H1629956   0.614   9.543   6.702
  535DIO    H1729957   0.475   9.450   6.649
  535DIO    H1829958   0.484   9.318   6.865
  535DIO    H1929959   0.615   9.425   6.920
  535DIO    H2029960   0.454   9.491   6.887
  536DIO     F129961   3.145   8.321   1.361
  536DIO     C129962   3.067   8.421   1.407
  536DIO     C229963   2.923   8.411   1.393
  536DIO     C329964   2.834   8.520   1.440
  536DIO     C429965   2.900   8.636   1.504
  536DIO     C529966   3.044   8.644   1.516
  536DIO     F229967   3.099   8.749   1.579
  536DIO     C629968   3.128   8.536   1.469
  536DIO     F329969   3.261   8.545   1.480
  536DIO     C729970   2.688   8.512   1.426
  536DIO     C829971   2.611   8.624   1.367
  536DIO     C929972   2.466   8.617   1.353
  536DIO    C1029973   2.393   8.503   1.407
  536DIO    C1129974   2.466   8.389   1.459
  536DIO    C1229975   2.610   8.395   1.470
  536DIO     F429976   2.675   8.289   1.524
  536DIO     O129977   2.261   8.492   1.370
  536DIO    C1329978   2.167   8.439   1.457
  536DIO     O229979   2.166   8.422   1.582
  536DIO    C1429980   2.038   8.414   1.392
  536DIO    C1529981   1.971   8.516   1.308
  536DIO     F529982   2.034   8.633   1.282
  536DIO    C1629983   1.840   8.496   1.249
  536DIO    C1729984   1.765   8.374   1.276
  536DIO    C1829985   1.833   8.265   1.344
  536DIO    C1929986   1.965   8.285   1.402
  536DIO     F629987   2.028   8.176   1.451
  536DIO    C2029988   1.624   8.356   1.224
  536DIO     O329989   1.554   8.480   1.203
  536DIO    C2129990   1.511   8.540   1.324
  536DIO    C2229991   1.422   8.445   1.403
  536DIO    C2329992   1.502   8.317   1.425
  536DIO     O429993   1.547   8.263   1.301
  536DIO    C2429994   1.289   8.412   1.332
  536DIO    C2529995   1.198   8.531   1.301
  536DIO    C2629996   1.160   8.613   1.423
  536DIO     H129997   2.880   8.323   1.347
  536DIO     H229998   2.839   8.714   1.549
  536DIO     H329999   2.662   8.711   1.328
  536DIO     H430000   2.411   8.695   1.302
  536DIO     H530001   2.411   8.302   1.494
  536DIO     H630002   1.802   8.571   1.181
  536DIO     H730003   1.791   8.166   1.348
  536DIO     H830004   1.634   8.311   1.125
  536DIO     H930005   1.597   8.570   1.384
  536DIO    H1030006   1.458   8.632   1.298
  536DIO    H1130007   1.399   8.489   1.501
  536DIO    H1230008   1.441   8.240   1.474
  536DIO    H1330009   1.589   8.335   1.490
  536DIO    H1430010   1.309   8.359   1.237
  536DIO    H1530011   1.232   8.341   1.394
  536DIO    H1630012   1.246   8.597   1.226
  536DIO    H1730013   1.106   8.493   1.254
  536DIO    H1830014   1.116   8.549   1.501
  536DIO    H1930015   1.246   8.665   1.465
  536DIO    H2030016   1.086   8.689   1.396
  537DIO     F130017   2.143   6.379   3.735
  537DIO     C130018   2.066   6.378   3.625
  537DIO     C230019   1.921   6.370   3.640
  537DIO     C330020   1.833   6.366   3.521
  537DIO     C430021   1.898   6.373   3.389
  537DIO     C530022   2.042   6.382   3.377
  537DIO     F230023   2.098   6.393   3.254
  537DIO     C630024   2.126   6.385   3.494
  537DIO     F330025   2.260   6.392   3.482
  537DIO     C730026   1.686   6.356   3.534
  537DIO     C830027   1.609   6.255   3.459
  537DIO     C930028   1.464   6.246   3.471
  537DIO    C1030029   1.392   6.343   3.550
  537DIO    C1130030   1.464   6.439   3.631
  537DIO    C1230031   1.608   6.447   3.621
  537DIO     F430032   1.673   6.540   3.694
  537DIO     O130033   1.260   6.314   3.576
  537DIO    C1330034   1.165   6.416   3.587
  537DIO     O230035   1.164   6.536   3.549
  537DIO    C1430036   1.036   6.368   3.638
  537DIO    C1530037   0.970   6.248   3.581
  537DIO     F530038   1.032   6.174   3.487
  537DIO    C1630039   0.839   6.203   3.625
  537DIO    C1730040   0.763   6.280   3.723
  537DIO    C1830041   0.832   6.388   3.792
  537DIO    C1930042   0.964   6.432   3.749
  537DIO     F630043   1.026   6.523   3.827
  537DIO    C2030044   0.622   6.241   3.761
  537DIO     O330045   0.553   6.168   3.659
  537DIO    C2130046   0.509   6.252   3.553
  537DIO    C2230047   0.420   6.365   3.605
  537DIO    C2330048   0.501   6.439   3.711
  537DIO     O430049   0.545   6.350   3.813
  537DIO    C2430050   0.287   6.314   3.665
  537DIO    C2530051   0.197   6.235   3.571
  537DIO    C2630052   0.158   6.311   3.445
  537DIO     H130053   1.879   6.366   3.739
  537DIO     H230054   1.838   6.381   3.299
  537DIO     H330055   1.661   6.182   3.397
  537DIO     H430056   1.409   6.166   3.422
  537DIO     H530057   1.410   6.508   3.695
  537DIO     H630058   0.801   6.110   3.586
  537DIO     H730059   0.789   6.434   3.881
  537DIO     H830060   0.632   6.170   3.845
  537DIO     H930061   0.596   6.293   3.500
  537DIO    H1030062   0.456   6.190   3.480
  537DIO    H1130063   0.398   6.434   3.523
  537DIO    H1230064   0.440   6.516   3.759
  537DIO    H1330065   0.587   6.490   3.666
  537DIO    H1430066   0.307   6.251   3.753
  537DIO    H1530067   0.231   6.401   3.702
  537DIO    H1630068   0.244   6.140   3.543
  537DIO    H1730069   0.105   6.209   3.625
  537DIO    H1830070   0.114   6.408   3.469
  537DIO    H1930071   0.245   6.327   3.380
  537DIO    H2030072   0.085   6.253   3.387
  538DIO     F130073   5.712   4.308   7.372
  538DIO     C130074   5.634   4.367   7.465
  538DIO     C230075   5.490   4.367   7.448
  538DIO     C330076   5.401   4.432   7.546
  538DIO     C430077   5.467   4.496   7.663
  538DIO     C530078   5.611   4.495   7.678
  538DIO     F230079   5.666   4.550   7.787
  538DIO     C630080   5.695   4.431   7.579
  538DIO     F330081   5.829   4.431   7.594
  538DIO     C730082   5.255   4.434   7.530
  538DIO     C830083   5.178   4.560   7.541
  538DIO     C930084   5.033   4.561   7.526
  538DIO    C1030085   4.960   4.437   7.510
  538DIO    C1130086   5.033   4.312   7.491
  538DIO    C1230087   5.177   4.311   7.504
  538DIO     F430088   5.242   4.193   7.492
  538DIO     O130089   4.828   4.447   7.472
  538DIO    C1330090   4.734   4.355   7.517
  538DIO     O230091   4.733   4.273   7.612
  538DIO    C1430092   4.605   4.369   7.449
  538DIO    C1530093   4.538   4.501   7.434
  538DIO     F530094   4.601   4.613   7.474
  538DIO    C1630095   4.408   4.516   7.373
  538DIO    C1730096   4.332   4.399   7.330
  538DIO    C1830097   4.401   4.270   7.328
  538DIO    C1930098   4.532   4.256   7.387
  538DIO     F630099   4.595   4.137   7.369
  538DIO    C2030100   4.191   4.412   7.276
  538DIO     O330101   4.121   4.527   7.325
  538DIO    C2130102   4.078   4.512   7.460
  538DIO    C2230103   3.989   4.389   7.475
  538DIO    C2330104   4.070   4.270   7.424
  538DIO     O430105   4.114   4.292   7.290
  538DIO    C2430106   3.856   4.400   7.397
  538DIO    C2530107   3.765   4.518   7.435
  538DIO    C2630108   3.727   4.520   7.582
  538DIO     H130109   5.447   4.317   7.361
  538DIO     H230110   5.406   4.537   7.743
  538DIO     H330111   5.229   4.654   7.555
  538DIO     H430112   4.978   4.654   7.525
  538DIO     H530113   4.979   4.220   7.474
  538DIO     H630114   4.369   4.616   7.357
  538DIO     H730115   4.358   4.185   7.277
  538DIO     H830116   4.201   4.428   7.168
  538DIO     H930117   4.164   4.505   7.526
  538DIO    H1030118   4.025   4.604   7.488
  538DIO    H1130119   3.966   4.373   7.581
  538DIO    H1230120   4.008   4.179   7.424
  538DIO    H1330121   4.156   4.250   7.489
  538DIO    H1430122   3.876   4.407   7.289
  538DIO    H1530123   3.800   4.307   7.411
  538DIO    H1630124   3.813   4.613   7.408
  538DIO    H1730125   3.674   4.511   7.375
  538DIO    H1830126   3.683   4.425   7.613
  538DIO    H1930127   3.813   4.540   7.646
  538DIO    H2030128   3.653   4.599   7.601
  539DIO     F130129   7.349   1.797   6.591
  539DIO     C130130   7.271   1.705   6.651
  539DIO     C230131   7.127   1.722   6.650
  539DIO     C330132   7.038   1.624   6.716
  539DIO     C430133   7.104   1.507   6.780
  539DIO     C530134   7.248   1.492   6.779
  539DIO     F230135   7.303   1.383   6.835
  539DIO     C630136   7.332   1.591   6.714
  539DIO     F330137   7.466   1.576   6.715
  539DIO     C730138   6.892   1.640   6.717
  539DIO     C830139   6.815   1.629   6.843
  539DIO     C930140   6.670   1.645   6.845
  539DIO    C1030141   6.597   1.660   6.720
  539DIO    C1130142   6.670   1.678   6.595
  539DIO    C1230143   6.814   1.665   6.595
  539DIO     F430144   6.879   1.677   6.477
  539DIO     O130145   6.465   1.698   6.731
  539DIO    C1330146   6.371   1.653   6.639
  539DIO     O230147   6.370   1.557   6.557
  539DIO    C1430148   6.242   1.721   6.653
  539DIO    C1530149   6.175   1.737   6.784
  539DIO     F530150   6.238   1.696   6.897
  539DIO    C1630151   6.045   1.798   6.799
  539DIO    C1730152   5.969   1.840   6.682
  539DIO    C1830153   6.038   1.842   6.553
  539DIO    C1930154   6.169   1.782   6.539
  539DIO     F630155   6.232   1.800   6.421
  539DIO    C2030156   5.828   1.893   6.695
  539DIO     O330157   5.758   1.845   6.810
  539DIO    C2130158   5.715   1.711   6.796
  539DIO    C2230159   5.626   1.695   6.673
  539DIO    C2330160   5.707   1.746   6.553
  539DIO     O430161   5.751   1.879   6.575
  539DIO    C2430162   5.493   1.773   6.684
  539DIO    C2530163   5.402   1.735   6.801
  539DIO    C2630164   5.364   1.588   6.804
  539DIO     H130165   7.084   1.808   6.600
  539DIO     H230166   7.043   1.427   6.821
  539DIO     H330167   6.866   1.616   6.937
  539DIO     H430168   6.615   1.646   6.938
  539DIO     H530169   6.616   1.695   6.504
  539DIO     H630170   6.006   1.814   6.899
  539DIO     H730171   5.995   1.892   6.468
  539DIO     H830172   5.838   2.002   6.710
  539DIO     H930173   5.801   1.644   6.789
  539DIO    H1030174   5.662   1.682   6.887
  539DIO    H1130175   5.603   1.589   6.657
  539DIO    H1230176   5.645   1.745   6.462
  539DIO    H1330177   5.793   1.681   6.534
  539DIO    H1430178   5.513   1.881   6.690
  539DIO    H1530179   5.437   1.758   6.591
  539DIO    H1630180   5.450   1.762   6.896
  539DIO    H1730181   5.311   1.795   6.794
  539DIO    H1830182   5.320   1.557   6.708
  539DIO    H1930183   5.450   1.524   6.825
  539DIO    H2030184   5.290   1.570   6.883
  540DIO     F130185   2.130   1.959   8.362
  540DIO     C130186   2.053   2.047   8.296
  540DIO     C230187   1.908   2.031   8.298
  540DIO     C330188   1.820   2.124   8.226
  540DIO     C430189   1.885   2.237   8.155
  540DIO     C530190   2.029   2.251   8.155
  540DIO     F230191   2.085   2.357   8.092
  540DIO     C630192   2.113   2.158   8.225
  540DIO     F330193   2.247   2.172   8.224
  540DIO     C730194   1.673   2.108   8.226
  540DIO     C830195   1.596   2.110   8.099
  540DIO     C930196   1.451   2.095   8.099
  540DIO    C1030197   1.379   2.088   8.224
  540DIO    C1130198   1.451   2.078   8.350
  540DIO    C1230199   1.595   2.090   8.350
  540DIO     F430200   1.660   2.086   8.468
  540DIO     O130201   1.247   2.049   8.216
  540DIO    C1330202   1.152   2.100   8.305
  540DIO     O230203   1.151   2.201   8.380
  540DIO    C1430204   1.023   2.031   8.295
  540DIO    C1530205   0.957   2.007   8.165
  540DIO     F530206   1.019   2.040   8.050
  540DIO    C1630207   0.826   1.945   8.154
  540DIO    C1730208   0.750   1.910   8.274
  540DIO    C1830209   0.819   1.917   8.402
  540DIO    C1930210   0.951   1.978   8.413
  540DIO     F630211   1.013   1.968   8.532
  540DIO    C2030212   0.609   1.856   8.264
  540DIO     O330213   0.540   1.897   8.146
  540DIO    C2130214   0.496   2.033   8.152
  540DIO    C2230215   0.407   2.056   8.274
  540DIO    C2330216   0.488   2.013   8.396
  540DIO     O430217   0.532   1.878   8.383
  540DIO    C2430218   0.274   1.977   8.268
  540DIO    C2530219   0.184   2.008   8.148
  540DIO    C2630220   0.145   2.155   8.136
  540DIO     H130221   1.866   1.948   8.353
  540DIO     H230222   1.825   2.314   8.108
  540DIO     H330223   1.648   2.118   8.005
  540DIO     H430224   1.396   2.088   8.006
  540DIO     H530225   1.397   2.067   8.443
  540DIO     H630226   0.788   1.923   8.055
  540DIO     H730227   0.776   1.872   8.491
  540DIO     H830228   0.619   1.748   8.256
  540DIO     H930229   0.583   2.099   8.154
  540DIO    H1030230   0.443   2.055   8.059
  540DIO    H1130231   0.385   2.163   8.282
  540DIO    H1230232   0.427   2.019   8.487
  540DIO    H1330233   0.574   2.079   8.411
  540DIO    H1430234   0.294   1.869   8.268
  540DIO    H1530235   0.218   1.998   8.360
  540DIO    H1630236   0.231   1.975   8.055
  540DIO    H1730237   0.092   1.949   8.159
  540DIO    H1830238   0.101   2.192   8.229
  540DIO    H1930239   0.232   2.217   8.111
  540DIO    H2030240   0.072   2.167   8.056
  541DIO     F130241   7.345   2.514   3.101
  541DIO     C130242   7.267   2.617   3.139
  541DIO     C230243   7.123   2.606   3.126
  541DIO     C330244   7.034   2.718   3.165
  541DIO     C430245   7.100   2.839   3.220
  541DIO     C530246   7.244   2.847   3.232
  541DIO     F230247   7.299   2.957   3.286
  541DIO     C630248   7.328   2.736   3.193
  541DIO     F330249   7.462   2.746   3.203
  541DIO     C730250   6.888   2.709   3.152
  541DIO     C830251   6.811   2.816   3.084
  541DIO     C930252   6.666   2.808   3.071
  541DIO    C1030253   6.593   2.699   3.134
  541DIO    C1130254   6.666   2.589   3.194
  541DIO    C1230255   6.810   2.596   3.205
  541DIO     F430256   6.875   2.495   3.266
  541DIO     O130257   6.461   2.685   3.097
  541DIO    C1330258   6.367   2.639   3.188
  541DIO     O230259   6.366   2.631   3.314
  541DIO    C1430260   6.238   2.609   3.125
  541DIO    C1530261   6.171   2.704   3.034
  541DIO     F530262   6.234   2.819   2.999
  541DIO    C1630263   6.041   2.680   2.976
  541DIO    C1730264   5.965   2.561   3.012
  541DIO    C1830265   6.034   2.457   3.089
  541DIO    C1930266   6.165   2.481   3.145
  541DIO     F630267   6.228   2.376   3.202
  541DIO    C2030268   5.824   2.539   2.962
  541DIO     O330269   5.754   2.660   2.931
  541DIO    C2130270   5.711   2.729   3.048
  541DIO    C2230271   5.622   2.640   3.134
  541DIO    C2330272   5.703   2.514   3.165
  541DIO     O430273   5.747   2.452   3.045
  541DIO    C2430274   5.489   2.602   3.065
  541DIO    C2530275   5.398   2.719   3.025
  541DIO    C2630276   5.360   2.809   3.141
  541DIO     H130277   7.080   2.514   3.087
  541DIO     H230278   7.039   2.920   3.259
  541DIO     H330279   6.862   2.900   3.039
  541DIO     H430280   6.611   2.882   3.014
  541DIO     H530281   6.612   2.505   3.236
  541DIO     H630282   6.002   2.750   2.903
  541DIO     H730283   5.991   2.358   3.100
  541DIO     H830284   5.834   2.486   2.866
  541DIO     H930285   5.797   2.764   3.105
  541DIO    H1030286   5.658   2.819   3.015
  541DIO    H1130287   5.599   2.692   3.228
  541DIO    H1230288   5.641   2.442   3.220
  541DIO    H1330289   5.789   2.538   3.229
  541DIO    H1430290   5.509   2.543   2.975
  541DIO    H1530291   5.433   2.537   3.133
  541DIO    H1630292   5.446   2.779   2.946
  541DIO    H1730293   5.307   2.678   2.981
  541DIO    H1830294   5.316   2.752   3.223
  541DIO    H1930295   5.446   2.864   3.180
  541DIO    H2030296   5.286   2.883   3.108
  542DIO     F130297   4.743   7.226   7.385
  542DIO     C130298   4.666   7.313   7.453
  542DIO     C230299   4.522   7.306   7.437
  542DIO     C330300   4.433   7.401   7.507
  542DIO     C430301   4.498   7.500   7.596
  542DIO     C530302   4.643   7.504   7.610
  542DIO     F230303   4.698   7.593   7.695
  542DIO     C630304   4.726   7.411   7.539
  542DIO     F330305   4.860   7.416   7.552
  542DIO     C730306   4.286   7.397   7.492
  542DIO     C830307   4.209   7.519   7.460
  542DIO     C930308   4.065   7.516   7.445
  542DIO    C1030309   3.992   7.393   7.472
  542DIO    C1130310   4.065   7.269   7.496
  542DIO    C1230311   4.209   7.273   7.508
  542DIO     F430312   4.274   7.158   7.536
  542DIO     O130313   3.860   7.391   7.433
  542DIO    C1330314   3.765   7.319   7.506
  542DIO     O230315   3.764   7.273   7.623
  542DIO    C1430316   3.636   7.309   7.437
  542DIO    C1530317   3.570   7.428   7.378
  542DIO     F530318   3.633   7.548   7.379
  542DIO    C1630319   3.439   7.422   7.316
  542DIO    C1730320   3.363   7.297   7.315
  542DIO    C1830321   3.432   7.176   7.356
  542DIO    C1930322   3.564   7.182   7.417
  542DIO     F630323   3.626   7.064   7.440
  542DIO    C2030324   3.223   7.292   7.260
  542DIO     O330325   3.153   7.417   7.267
  542DIO    C2130326   3.109   7.448   7.399
  542DIO    C2230327   3.020   7.337   7.455
  542DIO    C2330328   3.101   7.207   7.446
  542DIO     O430329   3.145   7.183   7.313
  542DIO    C2430330   2.888   7.321   7.377
  542DIO    C2530331   2.797   7.444   7.374
  542DIO    C2630332   2.758   7.496   7.512
  542DIO     H130333   4.479   7.231   7.372
  542DIO     H230334   4.438   7.566   7.658
  542DIO     H330335   4.261   7.613   7.442
  542DIO     H430336   4.010   7.603   7.413
  542DIO     H530337   4.010   7.177   7.511
  542DIO     H630338   3.401   7.511   7.267
  542DIO     H730339   3.389   7.078   7.337
  542DIO     H830340   3.232   7.270   7.153
  542DIO     H930341   3.196   7.463   7.464
  542DIO    H1030342   3.056   7.543   7.395
  542DIO    H1130343   2.998   7.357   7.560
  542DIO    H1230344   3.040   7.122   7.477
  542DIO    H1330345   3.187   7.210   7.514
  542DIO    H1430346   2.907   7.291   7.273
  542DIO    H1530347   2.831   7.238   7.422
  542DIO    H1630348   2.844   7.525   7.317
  542DIO    H1730349   2.705   7.418   7.320
  542DIO    H1830350   2.715   7.416   7.573
  542DIO    H1930351   2.845   7.537   7.565
  542DIO    H2030352   2.685   7.576   7.503
  543DIO     F130353   3.087   6.040   9.458
  543DIO     C130354   3.010   6.020   9.350
  543DIO     C230355   2.866   6.015   9.366
  543DIO     C330356   2.777   5.991   9.250
  543DIO     C430357   2.842   5.976   9.118
  543DIO     C530358   2.987   5.982   9.105
  543DIO     F230359   3.042   5.973   8.982
  543DIO     C630360   3.070   6.005   9.220
  543DIO     F330361   3.204   6.009   9.206
  543DIO     C730362   2.631   5.983   9.264
  543DIO     C830363   2.553   5.871   9.207
  543DIO     C930364   2.409   5.864   9.220
  543DIO    C1030365   2.336   5.973   9.282
  543DIO    C1130366   2.409   6.082   9.346
  543DIO    C1230367   2.553   6.087   9.335
  543DIO     F430368   2.618   6.191   9.390
  543DIO     O130369   2.204   5.949   9.313
  543DIO    C1330370   2.109   6.051   9.306
  543DIO     O230371   2.109   6.163   9.249
  543DIO    C1430372   1.980   6.012   9.364
  543DIO    C1530373   1.914   5.885   9.328
  543DIO     F530374   1.977   5.796   9.248
  543DIO    C1630375   1.783   5.848   9.379
  543DIO    C1730376   1.707   5.940   9.463
  543DIO    C1830377   1.776   6.058   9.513
  543DIO    C1930378   1.908   6.094   9.464
  543DIO     F630379   1.970   6.197   9.525
  543DIO    C2030380   1.567   5.908   9.507
  543DIO     O330381   1.497   5.819   9.419
  543DIO    C2130382   1.453   5.884   9.300
  543DIO    C2230383   1.364   6.004   9.332
  543DIO    C2330384   1.445   6.095   9.425
  543DIO     O430385   1.489   6.024   9.540
  543DIO    C2430386   1.232   5.964   9.400
  543DIO    C2530387   1.141   5.870   9.320
  543DIO    C2630388   1.103   5.923   9.183
  543DIO     H130389   2.823   6.028   9.465
  543DIO     H230390   2.782   5.969   9.028
  543DIO     H330391   2.605   5.789   9.158
  543DIO     H430392   2.354   5.778   9.186
  543DIO     H530393   2.354   6.160   9.397
  543DIO     H630394   1.745   5.749   9.356
  543DIO     H730395   1.733   6.118   9.593
  543DIO     H830396   1.576   5.852   9.602
  543DIO     H930397   1.540   5.916   9.241
  543DIO    H1030398   1.401   5.810   9.239
  543DIO    H1130399   1.342   6.058   9.240
  543DIO    H1230400   1.384   6.179   9.459
  543DIO    H1330401   1.531   6.138   9.372
  543DIO    H1430402   1.252   5.917   9.498
  543DIO    H1530403   1.175   6.055   9.422
  543DIO    H1630404   1.188   5.772   9.309
  543DIO    H1730405   1.049   5.853   9.378
  543DIO    H1830406   1.059   6.023   9.191
  543DIO    H1930407   1.189   5.928   9.117
  543DIO    H2030408   1.029   5.857   9.137
  544DIO     F130409   9.117   3.696   4.150
  544DIO     C130410   9.039   3.806   4.147
  544DIO     C230411   8.895   3.791   4.139
  544DIO     C330412   8.806   3.909   4.133
  544DIO     C430413   8.872   4.042   4.139
  544DIO     C530414   9.016   4.054   4.147
  544DIO     F230415   9.072   4.177   4.157
  544DIO     C630416   9.100   3.937   4.152
  544DIO     F330417   9.234   3.949   4.158
  544DIO     C730418   8.660   3.896   4.124
  544DIO     C830419   8.583   3.970   4.021
  544DIO     C930420   8.438   3.958   4.012
  544DIO    C1030421   8.366   3.880   4.111
  544DIO    C1130422   8.438   3.800   4.208
  544DIO    C1230423   8.582   3.810   4.215
  544DIO     F430424   8.647   3.739   4.310
  544DIO     O130425   8.233   3.853   4.082
  544DIO    C1330426   8.139   3.844   4.184
  544DIO     O230427   8.138   3.884   4.304
  544DIO    C1430428   8.010   3.793   4.137
  544DIO    C1530429   7.943   3.848   4.016
  544DIO     F530430   8.006   3.941   3.941
  544DIO    C1630431   7.813   3.804   3.972
  544DIO    C1730432   7.737   3.706   4.050
  544DIO    C1830433   7.806   3.639   4.159
  544DIO    C1930434   7.937   3.682   4.202
  544DIO     F630435   8.000   3.605   4.294
  544DIO    C2030436   7.596   3.668   4.011
  544DIO     O330437   7.526   3.769   3.938
  544DIO    C2130438   7.483   3.876   4.020
  544DIO    C2230439   7.394   3.826   4.133
  544DIO    C2330440   7.475   3.720   4.209
  544DIO     O430441   7.519   3.618   4.121
  544DIO    C2430442   7.261   3.765   4.083
  544DIO    C2530443   7.170   3.858   4.003
  544DIO    C2630444   7.132   3.985   4.077
  544DIO     H130445   8.853   3.691   4.136
  544DIO     H230446   8.811   4.132   4.145
  544DIO     H330447   8.634   4.031   3.948
  544DIO     H430448   8.383   4.006   3.932
  544DIO     H530449   8.384   3.738   4.278
  544DIO     H630450   7.775   3.842   3.878
  544DIO     H730451   7.763   3.551   4.206
  544DIO     H830452   7.606   3.583   3.942
  544DIO     H930453   7.569   3.930   4.060
  544DIO    H1030454   7.430   3.948   3.956
  544DIO    H1130455   7.371   3.908   4.201
  544DIO    H1230456   7.414   3.674   4.287
  544DIO    H1330457   7.561   3.766   4.259
  544DIO    H1430458   7.281   3.676   4.022
  544DIO    H1530459   7.205   3.729   4.170
  544DIO    H1630460   7.218   3.884   3.907
  544DIO    H1730461   7.079   3.804   3.977
  544DIO    H1830462   7.088   3.963   4.174
  544DIO    H1930463   7.219   4.051   4.092
  544DIO    H2030464   7.058   4.042   4.019
  545DIO     F130465   8.917   7.790   6.662
  545DIO     C130466   8.839   7.898   6.683
  545DIO     C230467   8.695   7.885   6.672
  545DIO     C330468   8.606   8.002   6.692
  545DIO     C430469   8.672   8.131   6.726
  545DIO     C530470   8.816   8.141   6.736
  545DIO     F230471   8.871   8.258   6.771
  545DIO     C630472   8.900   8.025   6.716
  545DIO     F330473   9.033   8.036   6.725
  545DIO     C730474   8.460   7.991   6.680
  545DIO     C830475   8.383   8.086   6.596
  545DIO     C930476   8.238   8.076   6.584
  545DIO    C1030477   8.165   7.978   6.664
  545DIO    C1130478   8.238   7.880   6.742
  545DIO    C1230479   8.382   7.888   6.751
  545DIO     F430480   8.447   7.799   6.828
  545DIO     O130481   8.033   7.958   6.630
  545DIO    C1330482   7.939   7.928   6.728
  545DIO     O230483   7.938   7.941   6.853
  545DIO    C1430484   7.809   7.888   6.670
  545DIO    C1530485   7.743   7.967   6.565
  545DIO     F530486   7.806   8.074   6.511
  545DIO    C1630487   7.612   7.933   6.512
  545DIO    C1730488   7.537   7.822   6.567
  545DIO    C1830489   7.605   7.732   6.659
  545DIO    C1930490   7.737   7.765   6.711
  545DIO     F630491   7.799   7.671   6.785
  545DIO    C2030492   7.396   7.792   6.521
  545DIO     O330493   7.326   7.906   6.471
  545DIO    C2130494   7.282   7.994   6.574
  545DIO    C2230495   7.194   7.920   6.674
  545DIO    C2330496   7.274   7.801   6.726
  545DIO     O430497   7.319   7.720   6.618
  545DIO    C2430498   7.061   7.871   6.612
  545DIO    C2530499   6.970   7.980   6.554
  545DIO    C2630500   6.932   8.088   6.653
  545DIO     H130501   8.652   7.788   6.649
  545DIO     H230502   8.611   8.217   6.751
  545DIO     H330503   8.434   8.160   6.537
  545DIO     H430504   8.183   8.139   6.516
  545DIO     H530505   8.183   7.804   6.796
  545DIO     H630506   7.574   7.990   6.428
  545DIO     H730507   7.562   7.636   6.687
  545DIO     H830508   7.406   7.724   6.435
  545DIO     H930509   7.369   8.038   6.625
  545DIO    H1030510   7.230   8.077   6.527
  545DIO    H1130511   7.171   7.987   6.758
  545DIO    H1230512   7.213   7.739   6.792
  545DIO    H1330513   7.360   7.835   6.785
  545DIO    H1430514   7.081   7.798   6.533
  545DIO    H1530515   7.004   7.818   6.690
  545DIO    H1630516   7.017   8.026   6.466
  545DIO    H1730517   6.878   7.932   6.517
  545DIO    H1830518   6.888   8.045   6.743
  545DIO    H1930519   7.018   8.149   6.682
  545DIO    H2030520   6.858   8.156   6.608
  546DIO     F130521   9.025   8.058   9.339
  546DIO     C130522   8.947   8.095   9.443
  546DIO     C230523   8.803   8.099   9.426
  546DIO     C330524   8.714   8.141   9.537
  546DIO     C430525   8.780   8.177   9.665
  546DIO     C530526   8.924   8.173   9.679
  546DIO     F230527   8.980   8.203   9.798
  546DIO     C630528   9.008   8.132   9.569
  546DIO     F330529   9.142   8.130   9.583
  546DIO     C730530   8.568   8.146   9.522
  546DIO     C830531   8.491   8.266   9.560
  546DIO     C930532   8.346   8.271   9.545
  546DIO    C1030533   8.274   8.153   9.502
  546DIO    C1130534   8.346   8.036   9.457
  546DIO    C1230535   8.490   8.032   9.469
  546DIO     F430536   8.555   7.920   9.431
  546DIO     O130537   8.141   8.172   9.468
  546DIO    C1330538   8.047   8.072   9.491
  546DIO     O230539   8.046   7.971   9.566
  546DIO    C1430540   7.918   8.101   9.428
  546DIO    C1530541   7.851   8.233   9.442
  546DIO     F530542   7.914   8.333   9.507
  546DIO    C1630543   7.721   8.261   9.386
  546DIO    C1730544   7.645   8.156   9.318
  546DIO    C1830545   7.714   8.031   9.288
  546DIO    C1930546   7.845   8.004   9.343
  546DIO     F630547   7.908   7.892   9.299
  546DIO    C2030548   7.504   8.181   9.269
  546DIO     O330549   7.434   8.282   9.342
  546DIO    C2130550   7.391   8.238   9.470
  546DIO    C2230551   7.302   8.115   9.458
  546DIO    C2330552   7.383   8.010   9.381
  546DIO     O430553   7.427   8.061   9.256
  546DIO    C2430554   7.169   8.143   9.384
  546DIO    C2530555   7.078   8.249   9.447
  546DIO    C2630556   7.040   8.218   9.591
  546DIO     H130557   8.761   8.069   9.331
  546DIO     H230558   8.719   8.200   9.752
  546DIO     H330559   8.542   8.355   9.594
  546DIO     H430560   8.291   8.362   9.565
  546DIO     H530561   8.292   7.950   9.420
  546DIO     H630562   7.683   8.362   9.392
  546DIO     H730563   7.671   7.959   9.220
  546DIO     H830564   7.514   8.220   9.167
  546DIO     H930565   7.477   8.217   9.533
  546DIO    H1030566   7.338   8.321   9.518
  546DIO    H1130567   7.279   8.076   9.558
  546DIO    H1230568   7.322   7.921   9.361
  546DIO    H1330569   7.469   7.976   9.441
  546DIO    H1430570   7.189   8.173   9.280
  546DIO    H1530571   7.113   8.049   9.378
  546DIO    H1630572   7.126   8.347   9.442
  546DIO    H1730573   6.987   8.256   9.388
  546DIO    H1830574   6.996   8.119   9.600
  546DIO    H1930575   7.127   8.225   9.658
  546DIO    H2030576   6.966   8.291   9.627
  547DIO     F130577   2.130   4.738   1.117
  547DIO     C130578   2.053   4.631   1.146
  547DIO     C230579   1.908   4.648   1.150
  547DIO     C330580   1.820   4.534   1.184
  547DIO     C430581   1.885   4.404   1.211
  547DIO     C530582   2.029   4.390   1.205
  547DIO     F230583   2.085   4.269   1.226
  547DIO     C630584   2.113   4.503   1.173
  547DIO     F330585   2.247   4.489   1.169
  547DIO     C730586   1.673   4.549   1.190
  547DIO     C830587   1.596   4.502   1.307
  547DIO     C930588   1.451   4.516   1.313
  547DIO    C1030589   1.379   4.568   1.199
  547DIO    C1130590   1.451   4.622   1.085
  547DIO    C1230591   1.595   4.610   1.081
  547DIO     F430592   1.660   4.656   0.972
  547DIO     O130593   1.247   4.601   1.220
  547DIO    C1330594   1.152   4.585   1.119
  547DIO     O230595   1.151   4.518   1.013
  547DIO    C1430596   1.023   4.646   1.153
  547DIO    C1530597   0.957   4.622   1.283
  547DIO     F530598   1.019   4.550   1.378
  547DIO    C1630599   0.826   4.676   1.315
  547DIO    C1730600   0.750   4.751   1.216
  547DIO    C1830601   0.819   4.791   1.094
  547DIO    C1930602   0.951   4.738   1.062
  547DIO     F630603   1.013   4.790   0.954
  547DIO    C2030604   0.609   4.798   1.244
  547DIO     O330605   0.540   4.718   1.340
  547DIO    C2130606   0.496   4.594   1.286
  547DIO    C2230607   0.407   4.615   1.164
  547DIO    C2330608   0.488   4.699   1.065
  547DIO     O430609   0.532   4.820   1.126
  547DIO    C2430610   0.274   4.687   1.198
  547DIO    C2530611   0.184   4.615   1.298
  547DIO    C2630612   0.145   4.474   1.257
  547DIO     H130613   1.866   4.745   1.128
  547DIO     H230614   1.825   4.315   1.226
  547DIO     H330615   1.648   4.461   1.393
  547DIO     H430616   1.396   4.489   1.402
  547DIO     H530617   1.397   4.666   1.003
  547DIO     H630618   0.788   4.662   1.416
  547DIO     H730619   0.776   4.864   1.027
  547DIO     H830620   0.619   4.897   1.291
  547DIO     H930621   0.583   4.532   1.260
  547DIO    H1030622   0.443   4.540   1.365
  547DIO    H1130623   0.385   4.519   1.118
  547DIO    H1230624   0.427   4.726   0.978
  547DIO    H1330625   0.574   4.643   1.027
  547DIO    H1430626   0.294   4.788   1.236
  547DIO    H1530627   0.218   4.700   1.104
  547DIO    H1630628   0.231   4.613   1.397
  547DIO    H1730629   0.092   4.674   1.310
  547DIO    H1830630   0.101   4.473   1.157
  547DIO    H1930631   0.232   4.407   1.258
  547DIO    H2030632   0.072   4.433   1.327
  548DIO     F130633   2.130   4.795   9.377
  548DIO     C130634   2.053   4.901   9.346
  548DIO     C230635   1.908   4.884   9.342
  548DIO     C330636   1.820   4.997   9.305
  548DIO     C430637   1.885   5.127   9.276
  548DIO     C530638   2.029   5.140   9.281
  548DIO     F230639   2.085   5.261   9.258
  548DIO     C630640   2.113   5.028   9.316
  548DIO     F330641   2.247   5.042   9.319
  548DIO     C730642   1.673   4.982   9.300
  548DIO     C830643   1.596   5.027   9.182
  548DIO     C930644   1.451   5.012   9.176
  548DIO    C1030645   1.379   4.963   9.291
  548DIO    C1130646   1.451   4.911   9.406
  548DIO    C1230647   1.595   4.923   9.411
  548DIO     F430648   1.660   4.879   9.520
  548DIO     O130649   1.247   4.930   9.271
  548DIO    C1330650   1.152   4.948   9.371
  548DIO     O230651   1.151   5.017   9.477
  548DIO    C1430652   1.023   4.886   9.339
  548DIO    C1530653   0.957   4.907   9.209
  548DIO     F530654   1.019   4.977   9.112
  548DIO    C1630655   0.826   4.853   9.177
  548DIO    C1730656   0.750   4.779   9.278
  548DIO    C1830657   0.819   4.742   9.401
  548DIO    C1930658   0.951   4.796   9.432
  548DIO     F630659   1.013   4.746   9.541
  548DIO    C2030660   0.609   4.732   9.251
  548DIO     O330661   0.540   4.810   9.154
  548DIO    C2130662   0.496   4.935   9.205
  548DIO    C2230663   0.407   4.916   9.327
  548DIO    C2330664   0.488   4.834   9.428
  548DIO     O430665   0.532   4.712   9.370
  548DIO    C2430666   0.274   4.844   9.295
  548DIO    C2530667   0.184   4.913   9.193
  548DIO    C2630668   0.145   5.056   9.231
  548DIO     H130669   1.866   4.787   9.366
  548DIO     H230670   1.825   5.215   9.259
  548DIO     H330671   1.648   5.066   9.095
  548DIO     H430672   1.396   5.037   9.086
  548DIO     H530673   1.397   4.869   9.490
  548DIO     H630674   0.788   4.865   9.077
  548DIO     H730675   0.776   4.670   9.470
  548DIO     H830676   0.619   4.632   9.206
  548DIO     H930677   0.583   4.998   9.230
  548DIO    H1030678   0.443   4.988   9.125
  548DIO    H1130679   0.385   5.014   9.372
  548DIO    H1230680   0.427   4.810   9.515
  548DIO    H1330681   0.574   4.892   9.465
  548DIO    H1430682   0.294   4.742   9.259
  548DIO    H1530683   0.218   4.833   9.389
  548DIO    H1630684   0.231   4.914   9.094
  548DIO    H1730685   0.092   4.854   9.183
  548DIO    H1830686   0.101   5.059   9.331
  548DIO    H1930687   0.232   5.122   9.229
  548DIO    H2030688   0.072   5.095   9.160
  549DIO     F130689   9.955   4.742   4.558
  549DIO     C130690   9.877   4.719   4.666
  549DIO     C230691   9.733   4.730   4.653
  549DIO     C330692   9.644   4.708   4.769
  549DIO     C430693   9.710   4.671   4.897
  549DIO     C530694   9.854   4.660   4.907
  549DIO     F230695   9.909   4.623   5.024
  549DIO     C630696   9.938   4.684   4.792
  549DIO     F330697  10.072   4.674   4.802
  549DIO     C730698   9.498   4.720   4.759
  549DIO     C830699   9.421   4.802   4.855
  549DIO     C930700   9.276   4.814   4.845
  549DIO    C1030701   9.203   4.737   4.746
  549DIO    C1130702   9.276   4.661   4.646
  549DIO    C1230703   9.420   4.651   4.654
  549DIO     F430704   9.485   4.576   4.563
  549DIO     O130705   9.071   4.771   4.727
  549DIO    C1330706   8.977   4.674   4.694
  549DIO     O230707   8.976   4.548   4.705
  549DIO    C1430708   8.848   4.732   4.656
  549DIO    C1530709   8.781   4.836   4.737
  549DIO     F530710   8.844   4.887   4.845
  549DIO    C1630711   8.651   4.890   4.704
  549DIO    C1730712   8.575   4.836   4.592
  549DIO    C1830713   8.644   4.746   4.500
  549DIO    C1930714   8.775   4.694   4.532
  549DIO     F630715   8.838   4.622   4.436
  549DIO    C2030716   8.434   4.883   4.563
  549DIO     O330717   8.364   4.931   4.678
  549DIO    C2130718   8.321   4.826   4.764
  549DIO    C2230719   8.232   4.727   4.688
  549DIO    C2330720   8.313   4.678   4.568
  549DIO     O430721   8.357   4.788   4.489
  549DIO    C2430722   8.099   4.790   4.640
  549DIO    C2530723   8.008   4.847   4.750
  549DIO    C2630724   7.970   4.745   4.857
  549DIO     H130725   9.690   4.756   4.557
  549DIO     H230726   9.649   4.644   4.983
  549DIO     H330727   9.472   4.859   4.931
  549DIO     H430728   9.221   4.881   4.910
  549DIO     H530729   9.222   4.608   4.569
  549DIO     H630730   8.612   4.972   4.763
  549DIO     H730731   8.601   4.721   4.404
  549DIO     H830732   8.444   4.970   4.497
  549DIO     H930733   8.407   4.774   4.806
  549DIO    H1030734   8.268   4.871   4.848
  549DIO    H1130735   8.209   4.642   4.753
  549DIO    H1230736   8.251   4.614   4.504
  549DIO    H1330737   8.399   4.619   4.601
  549DIO    H1430738   8.119   4.871   4.569
  549DIO    H1530739   8.043   4.714   4.585
  549DIO    H1630740   8.056   4.933   4.798
  549DIO    H1730741   7.917   4.884   4.703
  549DIO    H1830742   7.926   4.655   4.812
  549DIO    H1930743   8.056   4.715   4.916
  549DIO    H2030744   7.896   4.788   4.925
  550DIO     F130745   2.130   0.427   5.371
  550DIO     C130746   2.053   0.537   5.382
  550DIO     C230747   1.908   0.523   5.372
  550DIO     C330748   1.820   0.641   5.381
  550DIO     C430749   1.885   0.772   5.403
  550DIO     C530750   2.029   0.783   5.413
  550DIO     F230751   2.085   0.904   5.437
  550DIO     C630752   2.113   0.666   5.403
  550DIO     F330753   2.247   0.678   5.411
  550DIO     C730754   1.673   0.629   5.370
  550DIO     C830755   1.596   0.716   5.277
  550DIO     C930756   1.451   0.705   5.267
  550DIO    C1030757   1.379   0.615   5.355
  550DIO    C1130758   1.451   0.524   5.442
  550DIO    C1230759   1.595   0.533   5.450
  550DIO     F430760   1.660   0.451   5.535
  550DIO     O130761   1.247   0.592   5.323
  550DIO    C1330762   1.152   0.570   5.423
  550DIO     O230763   1.151   0.595   5.547
  550DIO    C1430764   1.023   0.525   5.370
  550DIO    C1530765   0.957   0.595   5.257
  550DIO     F530766   1.019   0.696   5.194
  550DIO    C1630767   0.826   0.556   5.208
  550DIO    C1730768   0.750   0.450   5.273
  550DIO    C1830769   0.819   0.369   5.373
  550DIO    C1930770   0.951   0.407   5.422
  550DIO     F630771   1.013   0.320   5.503
  550DIO    C2030772   0.609   0.416   5.230
  550DIO     O330773   0.540   0.526   5.169
  550DIO    C2130774   0.496   0.622   5.264
  550DIO    C2230775   0.407   0.558   5.371
  550DIO    C2330776   0.488   0.444   5.433
  550DIO     O430777   0.532   0.353   5.333
  550DIO    C2430778   0.274   0.504   5.314
  550DIO    C2530779   0.184   0.607   5.245
  550DIO    C2630780   0.145   0.724   5.334
  550DIO     H130781   1.866   0.424   5.357
  550DIO     H230782   1.825   0.861   5.420
  550DIO     H330783   1.648   0.785   5.212
  550DIO     H430784   1.396   0.761   5.193
  550DIO     H530785   1.397   0.453   5.503
  550DIO     H630786   0.788   0.605   5.119
  550DIO     H730787   0.776   0.277   5.409
  550DIO     H830788   0.619   0.341   5.151
  550DIO     H930789   0.583   0.670   5.311
  550DIO    H1030790   0.443   0.701   5.210
  550DIO    H1130791   0.385   0.632   5.448
  550DIO    H1230792   0.427   0.388   5.504
  550DIO    H1330793   0.574   0.483   5.488
  550DIO    H1430794   0.294   0.423   5.242
  550DIO    H1530795   0.218   0.458   5.396
  550DIO    H1630796   0.231   0.644   5.154
  550DIO    H1730797   0.092   0.555   5.213
  550DIO    H1830798   0.101   0.689   5.428
  550DIO    H1930799   0.232   0.786   5.357
  550DIO    H2030800   0.072   0.787   5.283
  551DIO     F130801   5.305   9.837   1.122
  551DIO     C130802   5.227   9.728   1.125
  551DIO     C230803   5.083   9.742   1.133
  551DIO     C330804   4.994   9.624   1.140
  551DIO     C430805   5.060   9.491   1.135
  551DIO     C530806   5.204   9.479   1.127
  551DIO     F230807   5.260   9.357   1.119
  551DIO     C630808   5.288   9.597   1.122
  551DIO     F330809   5.422   9.584   1.115
  551DIO     C730810   4.848   9.637   1.149
  551DIO     C830811   4.771   9.564   1.252
  551DIO     C930812   4.626   9.576   1.261
  551DIO    C1030813   4.554   9.653   1.162
  551DIO    C1130814   4.626   9.733   1.064
  551DIO    C1230815   4.770   9.722   1.057
  551DIO     F430816   4.835   9.792   0.962
  551DIO     O130817   4.421   9.680   1.191
  551DIO    C1330818   4.327   9.689   1.089
  551DIO     O230819   4.326   9.648   0.969
  551DIO    C1430820   4.198   9.740   1.135
  551DIO    C1530821   4.131   9.686   1.256
  551DIO     F530822   4.194   9.594   1.332
  551DIO    C1630823   4.001   9.731   1.300
  551DIO    C1730824   3.925   9.828   1.222
  551DIO    C1830825   3.994   9.895   1.112
  551DIO    C1930826   4.125   9.851   1.069
  551DIO     F630827   4.188   9.927   0.976
  551DIO    C2030828   3.784   9.867   1.260
  551DIO     O330829   3.714   9.766   1.334
  551DIO    C2130830   3.671   9.658   1.253
  551DIO    C2230831   3.582   9.708   1.139
  551DIO    C2330832   3.663   9.812   1.063
  551DIO     O430833   3.707   9.916   1.150
  551DIO    C2430834   3.449   9.769   1.189
  551DIO    C2530835   3.358   9.676   1.270
  551DIO    C2630836   3.320   9.549   1.197
  551DIO     H130837   5.041   9.842   1.135
  551DIO     H230838   4.999   9.401   1.130
  551DIO     H330839   4.822   9.504   1.326
  551DIO     H430840   4.571   9.529   1.342
  551DIO     H530841   4.572   9.794   0.994
  551DIO     H630842   3.963   9.694   1.395
  551DIO     H730843   3.951   9.982   1.064
  551DIO     H830844   3.794   9.952   1.329
  551DIO     H930845   3.757   9.604   1.213
  551DIO    H1030846   3.618   9.587   1.317
  551DIO    H1130847   3.559   9.624   1.072
  551DIO    H1230848   3.602   9.859   0.984
  551DIO    H1330849   3.749   9.766   1.013
  551DIO    H1430850   3.469   9.858   1.249
  551DIO    H1530851   3.393   9.804   1.101
  551DIO    H1630852   3.406   9.651   1.365
  551DIO    H1730853   3.267   9.731   1.295
  551DIO    H1830854   3.276   9.570   1.099
  551DIO    H1930855   3.407   9.483   1.182
  551DIO    H2030856   3.246   9.493   1.256
  552DIO     F130857   9.955   4.547   6.497
  552DIO     C130858   9.877   4.484   6.407
  552DIO     C230859   9.733   4.486   6.424
  552DIO     C330860   9.644   4.416   6.328
  552DIO     C430861   9.710   4.348   6.213
  552DIO     C530862   9.854   4.349   6.199
  552DIO     F230863   9.910   4.289   6.091
  552DIO     C630864   9.938   4.417   6.295
  552DIO     F330865  10.072   4.415   6.280
  552DIO     C730866   9.498   4.415   6.344
  552DIO     C830867   9.421   4.289   6.338
  552DIO     C930868   9.276   4.288   6.353
  552DIO    C1030869   9.204   4.413   6.364
  552DIO    C1130870   9.276   4.539   6.378
  552DIO    C1230871   9.420   4.539   6.365
  552DIO     F430872   9.485   4.657   6.373
  552DIO     O130873   9.071   4.404   6.402
  552DIO    C1330874   8.977   4.494   6.354
  552DIO     O230875   8.976   4.573   6.256
  552DIO    C1430876   8.848   4.483   6.423
  552DIO    C1530877   8.781   4.352   6.443
  552DIO     F530878   8.844   4.238   6.406
  552DIO    C1630879   8.651   4.339   6.504
  552DIO    C1730880   8.575   4.458   6.543
  552DIO    C1830881   8.644   4.586   6.540
  552DIO    C1930882   8.775   4.599   6.480
  552DIO     F630883   8.838   4.717   6.494
  552DIO    C2030884   8.434   4.447   6.597
  552DIO     O330885   8.364   4.330   6.552
  552DIO    C2130886   8.321   4.340   6.417
  552DIO    C2230887   8.232   4.462   6.397
  552DIO    C2330888   8.313   4.583   6.444
  552DIO     O430889   8.357   4.566   6.578
  552DIO    C2430890   8.099   4.454   6.476
  552DIO    C2530891   8.008   4.335   6.442
  552DIO    C2630892   7.970   4.327   6.295
  552DIO     H130893   9.691   4.538   6.508
  552DIO     H230894   9.649   4.305   6.135
  552DIO     H330895   9.472   4.195   6.327
  552DIO     H430896   9.221   4.195   6.357
  552DIO     H530897   9.222   4.631   6.392
  552DIO     H630898   8.613   4.240   6.524
  552DIO     H730899   8.601   4.673   6.588
  552DIO     H830900   8.444   4.435   6.705
  552DIO     H930901   8.407   4.344   6.350
  552DIO    H1030902   8.268   4.247   6.392
  552DIO    H1130903   8.209   4.474   6.291
  552DIO    H1230904   8.252   4.674   6.441
  552DIO    H1330905   8.399   4.600   6.378
  552DIO    H1430906   8.119   4.451   6.584
  552DIO    H1530907   8.043   4.546   6.458
  552DIO    H1630908   8.056   4.241   6.472
  552DIO    H1730909   7.917   4.344   6.501
  552DIO    H1830910   7.926   4.422   6.260
  552DIO    H1930911   8.057   4.304   6.232
  552DIO    H2030912   7.896   4.248   6.279
  553DIO     F130913   7.915   1.483   3.823
  553DIO     C130914   7.837   1.411   3.906
  553DIO     C230915   7.693   1.427   3.900
  553DIO     C330916   7.604   1.351   3.991
  553DIO     C430917   7.670   1.256   4.085
  553DIO     C530918   7.814   1.242   4.088
  553DIO     F230919   7.870   1.152   4.172
  553DIO     C630920   7.898   1.318   3.999
  553DIO     F330921   8.032   1.305   4.003
  553DIO     C730922   7.458   1.366   3.988
  553DIO     C830923   7.381   1.391   4.112
  553DIO     C930924   7.236   1.406   4.109
  553DIO    C1030925   7.164   1.387   3.985
  553DIO    C1130926   7.236   1.370   3.860
  553DIO    C1230927   7.380   1.357   3.863
  553DIO     F430928   7.445   1.336   3.747
  553DIO     O130929   7.031   1.426   3.985
  553DIO    C1330930   6.937   1.357   3.909
  553DIO     O230931   6.936   1.243   3.857
  553DIO    C1430932   6.808   1.427   3.903
  553DIO    C1530933   6.741   1.478   4.025
  553DIO     F530934   6.804   1.470   4.145
  553DIO    C1630935   6.611   1.541   4.023
  553DIO    C1730936   6.535   1.549   3.898
  553DIO    C1830937   6.604   1.515   3.775
  553DIO    C1930938   6.735   1.454   3.777
  553DIO     F630939   6.798   1.438   3.658
  553DIO    C2030940   6.394   1.604   3.896
  553DIO     O330941   6.324   1.590   4.020
  553DIO    C2130942   6.281   1.456   4.044
  553DIO    C2230943   6.192   1.407   3.930
  553DIO    C2330944   6.273   1.423   3.801
  553DIO     O430945   6.317   1.557   3.785
  553DIO    C2430946   6.059   1.485   3.919
  553DIO    C2530947   5.968   1.481   4.042
  553DIO    C2630948   5.930   1.340   4.085
  553DIO     H130949   7.651   1.496   3.829
  553DIO     H230950   7.609   1.191   4.146
  553DIO     H330951   7.432   1.404   4.206
  553DIO     H430952   7.181   1.433   4.198
  553DIO     H530953   7.182   1.361   3.767
  553DIO     H630954   6.573   1.584   4.115
  553DIO     H730955   6.561   1.540   3.678
  553DIO     H830956   6.404   1.712   3.881
  553DIO     H930957   6.367   1.390   4.056
  553DIO    H1030958   6.228   1.454   4.139
  553DIO    H1130959   6.169   1.301   3.944
  553DIO    H1230960   6.212   1.398   3.714
  553DIO    H1330961   6.359   1.355   3.800
  553DIO    H1430962   6.079   1.591   3.895
  553DIO    H1530963   6.003   1.445   3.833
  553DIO    H1630964   6.016   1.533   4.126
  553DIO    H1730965   5.877   1.537   4.019
  553DIO    H1830966   5.886   1.284   4.002
  553DIO    H1930967   6.017   1.285   4.123
  553DIO    H2030968   5.856   1.345   4.166
  554DIO     F130969   5.333   8.193   0.508
  554DIO     C130970   5.255   8.270   0.587
  554DIO     C230971   5.111   8.266   0.571
  554DIO     C330972   5.022   8.351   0.653
  554DIO     C430973   5.088   8.437   0.755
  554DIO     C530974   5.232   8.439   0.769
  554DIO     F230975   5.288   8.516   0.865
  554DIO     C630976   5.316   8.356   0.686
  554DIO     F330977   5.450   8.360   0.700
  554DIO     C730978   4.876   8.349   0.638
  554DIO     C830979   4.799   8.474   0.622
  554DIO     C930980   4.654   8.473   0.607
  554DIO    C1030981   4.582   8.347   0.617
  554DIO    C1130982   4.654   8.222   0.624
  554DIO    C1230983   4.798   8.224   0.637
  554DIO     F430984   4.863   8.106   0.649
  554DIO     O130985   4.449   8.350   0.578
  554DIO    C1330986   4.355   8.270   0.640
  554DIO     O230987   4.354   8.209   0.751
  554DIO    C1430988   4.226   8.269   0.571
  554DIO    C1530989   4.160   8.395   0.529
  554DIO     F530990   4.222   8.513   0.546
  554DIO    C1630991   4.029   8.397   0.466
  554DIO    C1730992   3.953   8.274   0.448
  554DIO    C1830993   4.022   8.148   0.473
  554DIO    C1930994   4.153   8.146   0.534
  554DIO     F630995   4.216   8.026   0.541
  554DIO    C2030996   3.812   8.276   0.393
  554DIO     O330997   3.743   8.398   0.417
  554DIO    C2130998   3.699   8.411   0.552
  554DIO    C2230999   3.610   8.294   0.592
  554DIO    C2331000   3.691   8.167   0.567
  554DIO     O431001   3.735   8.161   0.431
  554DIO    C2431002   3.477   8.289   0.514
  554DIO    C2531003   3.387   8.412   0.527
  554DIO    C2631004   3.348   8.444   0.671
  554DIO     H131005   5.069   8.200   0.496
  554DIO     H231006   5.027   8.494   0.825
  554DIO     H331007   4.850   8.569   0.617
  554DIO     H431008   4.599   8.564   0.587
  554DIO     H531009   4.600   8.128   0.626
  554DIO     H631010   3.991   8.492   0.430
  554DIO     H731011   3.979   8.053   0.441
  554DIO     H831012   3.822   8.269   0.284
  554DIO     H931013   3.786   8.418   0.619
  554DIO    H1031014   3.646   8.507   0.561
  554DIO    H1131015   3.587   8.300   0.699
  554DIO    H1231016   3.630   8.078   0.585
  554DIO    H1331017   3.777   8.161   0.634
  554DIO    H1431018   3.497   8.273   0.407
  554DIO    H1531019   3.421   8.201   0.547
  554DIO    H1631020   3.434   8.499   0.481
  554DIO    H1731021   3.295   8.393   0.470
  554DIO    H1831022   3.304   8.357   0.721
  554DIO    H1931023   3.435   8.477   0.729
  554DIO    H2031024   3.274   8.525   0.672
  555DIO     F131025   4.645   5.685   3.188
  555DIO     C131026   4.568   5.601   3.259
  555DIO     C231027   4.424   5.617   3.256
  555DIO     C331028   4.335   5.529   3.334
  555DIO     C431029   4.400   5.422   3.413
  555DIO     C531030   4.545   5.407   3.414
  555DIO     F231031   4.600   5.306   3.484
  555DIO     C631032   4.628   5.496   3.337
  555DIO     F331033   4.762   5.482   3.340
  555DIO     C731034   4.188   5.545   3.334
  555DIO     C831035   4.111   5.551   3.460
  555DIO     C931036   3.967   5.567   3.459
  555DIO    C1031037   3.894   5.566   3.334
  555DIO    C1131038   3.966   5.567   3.208
  555DIO    C1231039   4.111   5.554   3.209
  555DIO     F431040   4.175   5.550   3.090
  555DIO     O131041   3.762   5.604   3.339
  555DIO    C1331042   3.667   5.548   3.254
  555DIO     O231043   3.666   5.442   3.186
  555DIO    C1431044   3.538   5.617   3.259
  555DIO    C1531045   3.472   5.650   3.387
  555DIO     F531046   3.534   5.625   3.504
  555DIO    C1631047   3.341   5.712   3.394
  555DIO    C1731048   3.265   5.739   3.272
  555DIO    C1831049   3.334   5.723   3.144
  555DIO    C1931050   3.466   5.662   3.138
  555DIO     F631051   3.528   5.664   3.018
  555DIO    C2031052   3.125   5.794   3.278
  555DIO     O331053   3.055   5.761   3.398
  555DIO    C2131054   3.011   5.625   3.402
  555DIO    C2231055   2.922   5.594   3.282
  555DIO    C2331056   3.003   5.628   3.157
  555DIO     O431057   3.047   5.764   3.161
  555DIO    C2431058   2.789   5.673   3.282
  555DIO    C2531059   2.699   5.650   3.404
  555DIO    C2631060   2.660   5.505   3.426
  555DIO     H131061   4.381   5.696   3.195
  555DIO     H231062   4.340   5.348   3.465
  555DIO     H331063   4.163   5.550   3.555
  555DIO     H431064   3.911   5.580   3.551
  555DIO     H531065   3.912   5.572   3.114
  555DIO     H631066   3.303   5.742   3.491
  555DIO     H731067   3.291   5.762   3.053
  555DIO     H831068   3.134   5.903   3.279
  555DIO     H931069   3.098   5.559   3.404
  555DIO    H1031070   2.958   5.610   3.496
  555DIO    H1131071   2.900   5.487   3.281
  555DIO    H1231072   2.942   5.616   3.067
  555DIO    H1331073   3.089   5.561   3.146
  555DIO    H1431074   2.809   5.780   3.275
  555DIO    H1531075   2.733   5.646   3.192
  555DIO    H1631076   2.746   5.690   3.495
  555DIO    H1731077   2.607   5.709   3.390
  555DIO    H1831078   2.616   5.461   3.336
  555DIO    H1931079   2.747   5.445   3.455
  555DIO    H2031080   2.587   5.498   3.507
  556DIO     F131081   2.131   2.952   9.639
  556DIO     C131082   2.053   2.899   9.736
  556DIO     C231083   1.909   2.914   9.727
  556DIO     C331084   1.820   2.859   9.832
  556DIO     C431085   1.886   2.787   9.944
  556DIO     C531086   2.030   2.774   9.950
  556DIO     F231087   2.085   2.705  10.052
  556DIO     C631088   2.114   2.829   9.847
  556DIO     F331089   2.248   2.817   9.854
  556DIO     C731090   1.674   2.874   9.826
  556DIO     C831091   1.597   2.925   9.941
  556DIO     C931092   1.452   2.939   9.935
  556DIO    C1031093   1.379   2.893   9.818
  556DIO    C1131094   1.452   2.849   9.700
  556DIO    C1231095   1.596   2.838   9.705
  556DIO     F431096   1.661   2.792   9.597
  556DIO     O131097   1.247   2.931   9.810
  556DIO    C1331098   1.153   2.848   9.751
  556DIO     O231099   1.152   2.725   9.724
  556DIO    C1431100   1.024   2.914   9.730
  556DIO    C1531101   0.957   2.991   9.838
  556DIO     F531102   1.020   3.009   9.956
  556DIO    C1631103   0.827   3.052   9.822
  556DIO    C1731104   0.751   3.033   9.699
  556DIO    C1831105   0.820   2.973   9.585
  556DIO    C1931106   0.951   2.913   9.601
  556DIO     F631107   1.014   2.872   9.488
  556DIO    C2031108   0.610   3.086   9.684
  556DIO     O331109   0.540   3.099   9.809
  556DIO    C2131110   0.497   2.973   9.860
  556DIO    C2231111   0.408   2.901   9.760
  556DIO    C2331112   0.489   2.888   9.631
  556DIO     O431113   0.533   3.016   9.586
  556DIO    C2431114   0.275   2.975   9.732
  556DIO    C2531115   0.184   2.997   9.854
  556DIO    C2631116   0.146   2.870   9.926
  556DIO     H131117   1.866   2.966   9.642
  556DIO     H231118   1.825   2.737  10.019
  556DIO     H331119   1.648   2.958  10.030
  556DIO     H431120   1.397   2.984  10.016
  556DIO     H531121   1.398   2.820   9.611
  556DIO     H631122   0.788   3.114   9.902
  556DIO     H731123   0.777   2.976   9.486
  556DIO     H831124   0.620   3.188   9.646
  556DIO     H931125   0.583   2.912   9.887
  556DIO    H1031126   0.444   2.992   9.954
  556DIO    H1131127   0.385   2.800   9.797
  556DIO    H1231128   0.427   2.845   9.551
  556DIO    H1331129   0.575   2.822   9.645
  556DIO    H1431130   0.295   3.072   9.686
  556DIO    H1531131   0.219   2.917   9.658
  556DIO    H1631132   0.232   3.067   9.924
  556DIO    H1731133   0.093   3.047   9.819
  556DIO    H1831134   0.102   2.797   9.858
  556DIO    H1931135   0.232   2.824   9.975
  556DIO    H2031136   0.072   2.892  10.004
  557DIO     F131137   5.691   8.092   8.461
  557DIO     C131138   5.614   8.138   8.561
  557DIO     C231139   5.470   8.140   8.544
  557DIO     C331140   5.381   8.192   8.650
  557DIO     C431141   5.446   8.239   8.774
  557DIO     C531142   5.591   8.236   8.789
  557DIO     F231143   5.646   8.276   8.905
  557DIO     C631144   5.674   8.185   8.683
  557DIO     F331145   5.808   8.184   8.697
  557DIO     C731146   5.234   8.195   8.635
  557DIO     C831147   5.157   8.318   8.662
  557DIO     C931148   5.013   8.322   8.647
  557DIO    C1031149   4.940   8.201   8.615
  557DIO    C1131150   5.013   8.080   8.580
  557DIO    C1231151   5.157   8.077   8.592
  557DIO     F431152   5.222   7.962   8.564
  557DIO     O131153   4.808   8.216   8.579
  557DIO    C1331154   4.713   8.119   8.611
  557DIO     O231155   4.712   8.025   8.694
  557DIO    C1431156   4.584   8.142   8.545
  557DIO    C1531157   4.518   8.275   8.548
  557DIO     F531158   4.581   8.381   8.603
  557DIO    C1631159   4.387   8.298   8.489
  557DIO    C1731160   4.311   8.188   8.431
  557DIO    C1831161   4.380   8.060   8.412
  557DIO    C1931162   4.512   8.038   8.469
  557DIO     F631163   4.574   7.923   8.435
  557DIO    C2031164   4.171   8.208   8.380
  557DIO     O331165   4.101   8.315   8.444
  557DIO    C2131166   4.057   8.282   8.575
  557DIO    C2231167   3.968   8.158   8.574
  557DIO    C2331168   4.049   8.047   8.507
  557DIO     O431169   4.093   8.087   8.378
  557DIO    C2431170   3.836   8.180   8.498
  557DIO    C2531171   3.745   8.291   8.552
  557DIO    C2631172   3.706   8.274   8.698
  557DIO     H131173   5.427   8.102   8.451
  557DIO     H231174   5.386   8.269   8.859
  557DIO     H331175   5.209   8.410   8.689
  557DIO     H431176   4.958   8.414   8.659
  557DIO     H531177   4.958   7.991   8.550
  557DIO     H631178   4.349   8.399   8.487
  557DIO     H731179   4.337   7.983   8.350
  557DIO     H831180   4.180   8.238   8.275
  557DIO     H931181   4.144   8.267   8.640
  557DIO    H1031182   4.004   8.369   8.616
  557DIO    H1131183   3.946   8.129   8.677
  557DIO    H1231184   3.988   7.957   8.495
  557DIO    H1331185   4.135   8.019   8.569
  557DIO    H1431186   3.855   8.201   8.392
  557DIO    H1531187   3.779   8.086   8.500
  557DIO    H1631188   3.792   8.389   8.538
  557DIO    H1731189   3.653   8.293   8.491
  557DIO    H1831190   3.663   8.175   8.716
  557DIO    H1931191   3.793   8.285   8.764
  557DIO    H2031192   3.633   8.349   8.726
  558DIO     F131193   2.747   2.286   2.264
  558DIO     C131194   2.669   2.376   2.328
  558DIO     C231195   2.525   2.369   2.312
  558DIO     C331196   2.437   2.467   2.378
  558DIO     C431197   2.502   2.570   2.462
  558DIO     C531198   2.646   2.575   2.476
  558DIO     F231199   2.702   2.668   2.557
  558DIO     C631200   2.730   2.478   2.410
  558DIO     F331201   2.864   2.484   2.422
  558DIO     C731202   2.290   2.462   2.363
  558DIO     C831203   2.213   2.583   2.325
  558DIO     C931204   2.068   2.578   2.311
  558DIO    C1031205   1.996   2.457   2.343
  558DIO    C1131206   2.068   2.335   2.373
  558DIO    C1231207   2.212   2.339   2.385
  558DIO     F431208   2.277   2.225   2.419
  558DIO     O131209   1.864   2.453   2.304
  558DIO    C1331210   1.769   2.385   2.380
  558DIO     O231211   1.768   2.345   2.500
  558DIO    C1431212   1.640   2.372   2.312
  558DIO    C1531213   1.574   2.488   2.248
  558DIO     F531214   1.636   2.607   2.243
  558DIO    C1631215   1.443   2.478   2.186
  558DIO    C1731216   1.367   2.354   2.191
  558DIO    C1831217   1.436   2.234   2.238
  558DIO    C1931218   1.567   2.243   2.298
  558DIO     F631219   1.630   2.127   2.326
  558DIO    C2031220   1.226   2.346   2.136
  558DIO     O331221   1.157   2.471   2.138
  558DIO    C2131222   1.113   2.508   2.268
  558DIO    C2231223   1.024   2.400   2.329
  558DIO    C2331224   1.105   2.270   2.327
  558DIO     O431225   1.149   2.240   2.194
  558DIO    C2431226   0.891   2.381   2.252
  558DIO    C2531227   0.801   2.504   2.243
  558DIO    C2631228   0.762   2.562   2.379
  558DIO     H131229   2.483   2.290   2.251
  558DIO     H231230   2.441   2.638   2.521
  558DIO     H331231   2.265   2.675   2.303
  558DIO     H431232   2.013   2.664   2.275
  558DIO     H531233   2.014   2.243   2.392
  558DIO     H631234   1.405   2.565   2.133
  558DIO     H731235   1.393   2.136   2.223
  558DIO     H831236   1.236   2.319   2.030
  558DIO     H931237   1.200   2.527   2.332
  558DIO    H1031238   1.060   2.603   2.260
  558DIO    H1131239   1.002   2.426   2.433
  558DIO    H1231240   1.044   2.186   2.361
  558DIO    H1331241   1.191   2.277   2.394
  558DIO    H1431242   0.911   2.346   2.150
  558DIO    H1531243   0.835   2.300   2.301
  558DIO    H1631244   0.848   2.582   2.182
  558DIO    H1731245   0.709   2.475   2.190
  558DIO    H1831246   0.718   2.485   2.443
  558DIO    H1931247   0.849   2.605   2.430
  558DIO    H2031248   0.689   2.642   2.366
  559DIO     F131249   4.408   2.720   9.748
  559DIO     C131250   4.331   2.628   9.687
  559DIO     C231251   4.187   2.635   9.703
  559DIO     C331252   4.098   2.535   9.640
  559DIO     C431253   4.163   2.429   9.560
  559DIO     C531254   4.308   2.424   9.546
  559DIO     F231255   4.363   2.328   9.469
  559DIO     C631256   4.391   2.523   9.609
  559DIO     F331257   4.525   2.516   9.597
  559DIO     C731258   3.952   2.540   9.655
  559DIO     C831259   3.874   2.421   9.698
  559DIO     C931260   3.730   2.426   9.712
  559DIO    C1031261   3.657   2.546   9.675
  559DIO    C1131262   3.730   2.667   9.640
  559DIO    C1231263   3.874   2.663   9.629
  559DIO     F431264   3.939   2.775   9.591
  559DIO     O131265   3.525   2.552   9.714
  559DIO    C1331266   3.430   2.617   9.635
  559DIO     O231267   3.430   2.653   9.514
  559DIO    C1431268   3.301   2.632   9.703
  559DIO    C1531269   3.235   2.519   9.771
  559DIO     F531270   3.298   2.400   9.780
  559DIO    C1631271   3.104   2.530   9.833
  559DIO    C1731272   3.028   2.655   9.824
  559DIO    C1831273   3.097   2.772   9.772
  559DIO    C1931274   3.229   2.761   9.712
  559DIO     F631275   3.291   2.877   9.680
  559DIO    C2031276   2.888   2.665   9.878
  559DIO     O331277   2.818   2.540   9.881
  559DIO    C2131278   2.774   2.498   9.752
  559DIO    C2231279   2.685   2.604   9.687
  559DIO    C2331280   2.766   2.733   9.685
  559DIO     O431281   2.810   2.768   9.816
  559DIO    C2431282   2.553   2.626   9.763
  559DIO    C2531283   2.462   2.503   9.776
  559DIO    C2631284   2.424   2.440   9.643
  559DIO     H131285   4.144   2.716   9.761
  559DIO     H231286   4.103   2.358   9.504
  559DIO     H331287   3.926   2.330   9.723
  559DIO     H431288   3.675   2.342   9.751
  559DIO     H531289   3.675   2.758   9.618
  559DIO     H631290   3.066   2.446   9.889
  559DIO     H731291   3.054   2.871   9.783
  559DIO     H831292   2.897   2.695   9.983
  559DIO     H931293   2.861   2.477   9.689
  559DIO    H1031294   2.722   2.403   9.764
  559DIO    H1131295   2.663   2.574   9.584
  559DIO    H1231296   2.705   2.816   9.647
  559DIO    H1331297   2.852   2.724   9.617
  559DIO    H1431298   2.573   2.664   9.864
  559DIO    H1531299   2.496   2.704   9.712
  559DIO    H1631300   2.509   2.427   9.840
  559DIO    H1731301   2.370   2.533   9.828
  559DIO    H1831302   2.380   2.514   9.576
  559DIO    H1931303   2.510   2.395   9.594
  559DIO    H2031304   2.350   2.361   9.659
  560DIO     F131305   9.467   3.816   7.690
  560DIO     C131306   9.390   3.760   7.784
  560DIO     C231307   9.246   3.775   7.776
  560DIO     C331308   9.157   3.717   7.879
  560DIO     C431309   9.222   3.641   7.989
  560DIO     C531310   9.367   3.628   7.994
  560DIO     F231311   9.422   3.555   8.093
  560DIO     C631312   9.450   3.686   7.893
  560DIO     F331313   9.584   3.674   7.900
  560DIO     C731314   9.010   3.732   7.873
  560DIO     C831315   8.933   3.779   7.991
  560DIO     C931316   8.789   3.793   7.985
  560DIO    C1031317   8.716   3.751   7.867
  560DIO    C1131318   8.788   3.712   7.747
  560DIO    C1231319   8.933   3.700   7.752
  560DIO     F431320   8.997   3.658   7.642
  560DIO     O131321   8.584   3.790   7.859
  560DIO    C1331322   8.489   3.708   7.797
  560DIO     O231323   8.488   3.586   7.767
  560DIO    C1431324   8.360   3.776   7.779
  560DIO    C1531325   8.294   3.848   7.890
  560DIO     F531326   8.356   3.862   8.008
  560DIO    C1631327   8.163   3.910   7.876
  560DIO    C1731328   8.087   3.895   7.752
  560DIO    C1831329   8.156   3.839   7.636
  560DIO    C1931330   8.288   3.779   7.650
  560DIO     F631331   8.350   3.742   7.536
  560DIO    C2031332   7.947   3.949   7.740
  560DIO     O331333   7.877   3.957   7.864
  560DIO    C2131334   7.833   3.830   7.912
  560DIO    C2231335   7.744   3.761   7.809
  560DIO    C2331336   7.825   3.753   7.679
  560DIO     O431337   7.869   3.882   7.639
  560DIO    C2431338   7.611   3.836   7.783
  560DIO    C2531339   7.521   3.854   7.906
  560DIO    C2631340   7.482   3.724   7.974
  560DIO     H131341   9.203   3.830   7.693
  560DIO     H231342   9.162   3.588   8.061
  560DIO     H331343   8.985   3.809   8.081
  560DIO     H431344   8.733   3.835   8.068
  560DIO     H531345   8.734   3.686   7.657
  560DIO     H631346   8.125   3.969   7.958
  560DIO     H731347   8.113   3.846   7.537
  560DIO     H831348   7.956   4.052   7.705
  560DIO     H931349   7.920   3.768   7.936
  560DIO    H1031350   7.780   3.846   8.006
  560DIO    H1131351   7.722   3.659   7.842
  560DIO    H1231352   7.764   3.712   7.598
  560DIO    H1331353   7.911   3.686   7.691
  560DIO    H1431354   7.631   3.935   7.741
  560DIO    H1531355   7.555   3.781   7.707
  560DIO    H1631356   7.568   3.921   7.978
  560DIO    H1731357   7.429   3.905   7.873
  560DIO    H1831358   7.438   3.653   7.903
  560DIO    H1931359   7.569   3.676   8.021
  560DIO    H2031360   7.409   3.743   8.052
  561DIO     F131361   8.560   9.838   1.258
  561DIO     C131362   8.483   9.728   1.268
  561DIO     C231363   8.339   9.744   1.275
  561DIO     C331364   8.250   9.626   1.289
  561DIO     C431365   8.315   9.493   1.292
  561DIO     C531366   8.460   9.480   1.284
  561DIO     F231367   8.515   9.358   1.283
  561DIO     C631368   8.543   9.597   1.272
  561DIO     F331369   8.677   9.584   1.266
  561DIO     C731370   8.103   9.639   1.297
  561DIO     C831371   8.026   9.573   1.404
  561DIO     C931372   7.882   9.585   1.413
  561DIO    C1031373   7.809   9.657   1.309
  561DIO    C1131374   7.882   9.730   1.207
  561DIO    C1231375   8.026   9.719   1.200
  561DIO     F431376   8.091   9.783   1.101
  561DIO     O131377   7.677   9.685   1.336
  561DIO    C1331378   7.582   9.687   1.234
  561DIO     O231379   7.581   9.640   1.117
  561DIO    C1431380   7.453   9.742   1.277
  561DIO    C1531381   7.387   9.695   1.401
  561DIO     F531382   7.450   9.607   1.482
  561DIO    C1631383   7.256   9.742   1.443
  561DIO    C1731384   7.180   9.834   1.358
  561DIO    C1831385   7.249   9.894   1.245
  561DIO    C1931386   7.381   9.848   1.204
  561DIO     F631387   7.443   9.918   1.107
  561DIO    C2031388   7.040   9.875   1.394
  561DIO     O331389   6.970   9.779   1.474
  561DIO    C2131390   6.926   9.666   1.399
  561DIO    C2231391   6.837   9.709   1.283
  561DIO    C2331392   6.918   9.809   1.200
  561DIO     O431393   6.962   9.918   1.281
  561DIO    C2431394   6.705   9.774   1.329
  561DIO    C2531395   6.614   9.686   1.415
  561DIO    C2631396   6.575   9.554   1.350
  561DIO     H131397   8.296   9.843   1.271
  561DIO     H231398   8.255   9.403   1.292
  561DIO     H331399   8.078   9.517   1.481
  561DIO     H431400   7.827   9.543   1.496
  561DIO     H531401   7.827   9.787   1.133
  561DIO     H631402   7.218   9.711   1.539
  561DIO     H731403   7.206   9.979   1.192
  561DIO     H831404   7.049   9.964   1.458
  561DIO     H931405   7.013   9.610   1.363
  561DIO    H1031406   6.873   9.599   1.468
  561DIO    H1131407   6.815   9.622   1.220
  561DIO    H1231408   6.857   9.851   1.119
  561DIO    H1331409   7.004   9.760   1.153
  561DIO    H1431410   6.724   9.866   1.384
  561DIO    H1531411   6.648   9.803   1.239
  561DIO    H1631412   6.661   9.666   1.512
  561DIO    H1731413   6.522   9.742   1.437
  561DIO    H1831414   6.532   9.570   1.251
  561DIO    H1931415   6.662   9.488   1.339
  561DIO    H2031416   6.502   9.502   1.412
  562DIO     F131417   2.229   4.822   2.068
  562DIO     C131418   2.152   4.717   2.035
  562DIO     C231419   2.008   4.729   2.048
  562DIO     C331420   1.919   4.615   2.015
  562DIO     C431421   1.984   4.491   1.967
  562DIO     C531422   2.129   4.482   1.955
  562DIO     F231423   2.184   4.369   1.907
  562DIO     C631424   2.212   4.595   1.989
  562DIO     F331425   2.346   4.585   1.978
  562DIO     C731426   1.772   4.624   2.028
  562DIO     C831427   1.695   4.521   2.101
  562DIO     C931428   1.551   4.530   2.114
  562DIO    C1031429   1.478   4.635   2.046
  562DIO    C1131430   1.551   4.742   1.979
  562DIO    C1231431   1.695   4.735   1.969
  562DIO     F431432   1.760   4.833   1.903
  562DIO     O131433   1.346   4.651   2.081
  562DIO    C1331434   1.251   4.693   1.988
  562DIO     O231435   1.250   4.694   1.862
  562DIO    C1431436   1.122   4.726   2.049
  562DIO    C1531437   1.056   4.635   2.145
  562DIO     F531438   1.119   4.523   2.187
  562DIO    C1631439   0.925   4.663   2.202
  562DIO    C1731440   0.849   4.780   2.159
  562DIO    C1831441   0.918   4.879   2.078
  562DIO    C1931442   1.050   4.852   2.023
  562DIO     F631443   1.112   4.954   1.961
  562DIO    C2031444   0.709   4.804   2.209
  562DIO     O331445   0.639   4.685   2.245
  562DIO    C2131446   0.595   4.610   2.133
  562DIO    C2231447   0.506   4.694   2.042
  562DIO    C2331448   0.587   4.818   2.004
  562DIO     O431449   0.631   4.887   2.121
  562DIO    C2431450   0.374   4.736   2.109
  562DIO    C2531451   0.283   4.621   2.155
  562DIO    C2631452   0.244   4.525   2.044
  562DIO     H131453   1.965   4.822   2.082
  562DIO     H231454   1.924   4.408   1.932
  562DIO     H331455   1.747   4.440   2.151
  562DIO     H431456   1.496   4.459   2.174
  562DIO     H531457   1.496   4.824   1.934
  562DIO     H631458   0.887   4.596   2.279
  562DIO     H731459   0.875   4.977   2.062
  562DIO     H831460   0.718   4.862   2.301
  562DIO     H931461   0.682   4.572   2.078
  562DIO    H1031462   0.542   4.521   2.170
  562DIO    H1131463   0.484   4.638   1.951
  562DIO    H1231464   0.526   4.887   1.946
  562DIO    H1331465   0.673   4.791   1.942
  562DIO    H1431466   0.393   4.800   2.196
  562DIO    H1531467   0.317   4.797   2.038
  562DIO    H1631468   0.330   4.566   2.237
  562DIO    H1731469   0.191   4.665   2.197
  562DIO    H1831470   0.201   4.578   1.959
  562DIO    H1931471   0.331   4.468   2.008
  562DIO    H2031472   0.171   4.453   2.081
  563DIO     F131473   6.616   5.923   1.768
  563DIO     C131474   6.539   5.961   1.871
  563DIO     C231475   6.395   5.964   1.855
  563DIO     C331476   6.306   6.007   1.965
  563DIO     C431477   6.371   6.045   2.093
  563DIO     C531478   6.516   6.041   2.107
  563DIO     F231479   6.571   6.071   2.226
  563DIO     C631480   6.599   5.999   1.997
  563DIO     F331481   6.733   5.997   2.011
  563DIO     C731482   6.159   6.012   1.950
  563DIO     C831483   6.082   6.133   1.987
  563DIO     C931484   5.938   6.138   1.972
  563DIO    C1031485   5.865   6.019   1.930
  563DIO    C1131486   5.937   5.902   1.886
  563DIO    C1231487   6.082   5.898   1.898
  563DIO     F431488   6.146   5.786   1.861
  563DIO     O131489   5.733   6.038   1.896
  563DIO    C1331490   5.638   5.939   1.920
  563DIO     O231491   5.637   5.838   1.995
  563DIO    C1431492   5.509   5.967   1.856
  563DIO    C1531493   5.443   6.099   1.869
  563DIO     F531494   5.505   6.200   1.933
  563DIO    C1631495   5.312   6.126   1.813
  563DIO    C1731496   5.236   6.021   1.746
  563DIO    C1831497   5.305   5.896   1.717
  563DIO    C1931498   5.437   5.869   1.772
  563DIO     F631499   5.499   5.757   1.729
  563DIO    C2031500   5.096   6.045   1.697
  563DIO     O331501   5.026   6.147   1.769
  563DIO    C2131502   4.982   6.104   1.897
  563DIO    C2231503   4.893   5.981   1.886
  563DIO    C2331504   4.974   5.875   1.811
  563DIO     O431505   5.018   5.925   1.685
  563DIO    C2431506   4.760   6.008   1.812
  563DIO    C2531507   4.670   6.115   1.875
  563DIO    C2631508   4.631   6.085   2.019
  563DIO     H131509   6.352   5.934   1.760
  563DIO     H231510   6.311   6.068   2.180
  563DIO     H331511   6.134   6.222   2.021
  563DIO     H431512   5.882   6.229   1.992
  563DIO     H531513   5.883   5.816   1.849
  563DIO     H631514   5.274   6.228   1.819
  563DIO     H731515   5.262   5.823   1.649
  563DIO     H831516   5.105   6.084   1.595
  563DIO     H931517   5.069   6.083   1.961
  563DIO    H1031518   4.929   6.187   1.945
  563DIO    H1131519   4.871   5.943   1.986
  563DIO    H1231520   4.913   5.786   1.791
  563DIO    H1331521   5.060   5.842   1.870
  563DIO    H1431522   4.780   6.038   1.708
  563DIO    H1531523   4.704   5.914   1.806
  563DIO    H1631524   4.717   6.213   1.869
  563DIO    H1731525   4.578   6.121   1.815
  563DIO    H1831526   4.587   5.986   2.029
  563DIO    H1931527   4.718   6.092   2.086
  563DIO    H2031528   4.558   6.158   2.054
  564DIO     F131529   5.474   1.370   6.610
  564DIO     C131530   5.396   1.428   6.517
  564DIO     C231531   5.252   1.413   6.525
  564DIO     C331532   5.163   1.474   6.423
  564DIO     C431533   5.229   1.552   6.315
  564DIO     C531534   5.373   1.566   6.310
  564DIO     F231535   5.428   1.641   6.213
  564DIO     C631536   5.457   1.505   6.410
  564DIO     F331537   5.590   1.517   6.403
  564DIO     C731538   5.017   1.459   6.428
  564DIO     C831539   4.940   1.415   6.310
  564DIO     C931540   4.795   1.400   6.315
  564DIO    C1031541   4.722   1.439   6.435
  564DIO    C1131542   4.795   1.476   6.555
  564DIO    C1231543   4.939   1.488   6.551
  564DIO     F431544   5.004   1.528   6.662
  564DIO     O131545   4.590   1.401   6.441
  564DIO    C1331546   4.496   1.481   6.505
  564DIO     O231547   4.495   1.602   6.538
  564DIO    C1431548   4.366   1.413   6.522
  564DIO    C1531549   4.300   1.343   6.409
  564DIO     F531550   4.363   1.331   6.290
  564DIO    C1631551   4.169   1.281   6.422
  564DIO    C1731552   4.094   1.293   6.546
  564DIO    C1831553   4.162   1.346   6.663
  564DIO    C1931554   4.294   1.406   6.650
  564DIO     F631555   4.356   1.441   6.765
  564DIO    C2031556   3.953   1.239   6.557
  564DIO     O331557   3.883   1.234   6.432
  564DIO    C2131558   3.839   1.362   6.388
  564DIO    C2231559   3.751   1.428   6.493
  564DIO    C2331560   3.831   1.433   6.622
  564DIO     O431561   3.876   1.303   6.659
  564DIO    C2431562   3.618   1.353   6.516
  564DIO    C2531563   3.527   1.337   6.393
  564DIO    C2631564   3.489   1.469   6.328
  564DIO     H131565   5.209   1.356   6.606
  564DIO     H231566   5.168   1.607   6.244
  564DIO     H331567   4.991   1.387   6.219
  564DIO     H431568   4.740   1.360   6.232
  564DIO     H531569   4.740   1.500   6.646
  564DIO     H631570   4.131   1.224   6.338
  564DIO     H731571   4.119   1.337   6.762
  564DIO     H831572   3.963   1.134   6.589
  564DIO     H931573   3.926   1.425   6.365
  564DIO    H1031574   3.787   1.348   6.293
  564DIO    H1131575   3.728   1.531   6.461
  564DIO    H1231576   3.770   1.472   6.704
  564DIO    H1331577   3.917   1.500   6.612
  564DIO    H1431578   3.638   1.252   6.556
  564DIO    H1531579   3.561   1.406   6.594
  564DIO    H1631580   3.574   1.272   6.319
  564DIO    H1731581   3.435   1.286   6.425
  564DIO    H1831582   3.445   1.538   6.401
  564DIO    H1931583   3.575   1.518   6.282
  564DIO    H2031584   3.415   1.452   6.249
  565DIO     F131585   8.477   0.385   4.811
  565DIO     C131586   8.400   0.293   4.750
  565DIO     C231587   8.255   0.300   4.766
  565DIO     C331588   8.167   0.199   4.703
  565DIO     C431589   8.232   0.093   4.623
  565DIO     C531590   8.376   0.088   4.610
  565DIO     F231591   8.432  -0.008   4.533
  565DIO     C631592   8.460   0.187   4.672
  565DIO     F331593   8.594   0.181   4.660
  565DIO     C731594   8.020   0.205   4.718
  565DIO     C831595   7.943   0.086   4.761
  565DIO     C931596   7.798   0.091   4.775
  565DIO    C1031597   7.726   0.211   4.738
  565DIO    C1131598   7.798   0.332   4.703
  565DIO    C1231599   7.942   0.327   4.692
  565DIO     F431600   8.007   0.439   4.654
  565DIO     O131601   7.594   0.217   4.777
  565DIO    C1331602   7.499   0.282   4.698
  565DIO     O231603   7.498   0.317   4.577
  565DIO    C1431604   7.370   0.297   4.766
  565DIO    C1531605   7.304   0.184   4.834
  565DIO     F531606   7.366   0.065   4.844
  565DIO    C1631607   7.173   0.195   4.896
  565DIO    C1731608   7.097   0.319   4.887
  565DIO    C1831609   7.166   0.437   4.835
  565DIO    C1931610   7.298   0.426   4.775
  565DIO     F631611   7.360   0.541   4.742
  565DIO    C2031612   6.956   0.330   4.941
  565DIO     O331613   6.887   0.205   4.944
  565DIO    C2131614   6.843   0.163   4.815
  565DIO    C2231615   6.754   0.268   4.750
  565DIO    C2331616   6.835   0.398   4.748
  565DIO     O431617   6.879   0.433   4.879
  565DIO    C2431618   6.621   0.290   4.826
  565DIO    C2531619   6.531   0.168   4.839
  565DIO    C2631620   6.492   0.105   4.707
  565DIO     H131621   8.213   0.381   4.824
  565DIO     H231622   8.172   0.023   4.567
  565DIO     H331623   7.995  -0.006   4.787
  565DIO     H431624   7.743   0.006   4.814
  565DIO     H531625   7.744   0.423   4.681
  565DIO     H631626   7.135   0.111   4.952
  565DIO     H731627   7.123   0.536   4.846
  565DIO     H831628   6.966   0.360   5.046
  565DIO     H931629   6.930   0.141   4.752
  565DIO    H1031630   6.790   0.068   4.827
  565DIO    H1131631   6.732   0.239   4.647
  565DIO    H1231632   6.774   0.481   4.710
  565DIO    H1331633   6.921   0.389   4.680
  565DIO    H1431634   6.641   0.329   4.927
  565DIO    H1531635   6.565   0.369   4.774
  565DIO    H1631636   6.578   0.092   4.903
  565DIO    H1731637   6.439   0.198   4.891
  565DIO    H1831638   6.448   0.179   4.639
  565DIO    H1931639   6.579   0.060   4.657
  565DIO    H2031640   6.419   0.025   4.723
  566DIO     F131641   4.070   4.112   2.085
  566DIO     C131642   3.993   4.080   2.190
  566DIO     C231643   3.848   4.093   2.179
  566DIO     C331644   3.760   4.061   2.293
  566DIO     C431645   3.825   4.014   2.417
  566DIO     C531646   3.969   4.002   2.426
  566DIO     F231647   4.025   3.955   2.539
  566DIO     C631648   4.053   4.035   2.313
  566DIO     F331649   4.187   4.024   2.323
  566DIO     C731650   3.613   4.074   2.283
  566DIO     C831651   3.536   4.148   2.386
  566DIO     C931652   3.391   4.160   2.377
  566DIO    C1031653   3.319   4.091   2.272
  566DIO    C1131654   3.391   4.024   2.166
  566DIO    C1231655   3.535   4.014   2.173
  566DIO     F431656   3.600   3.946   2.076
  566DIO     O131657   3.187   4.127   2.256
  566DIO    C1331658   3.092   4.033   2.215
  566DIO     O231659   3.091   3.907   2.215
  566DIO    C1431660   2.963   4.094   2.181
  566DIO    C1531661   2.897   4.191   2.271
  566DIO     F531662   2.959   4.233   2.383
  566DIO    C1631663   2.766   4.247   2.243
  566DIO    C1731664   2.690   4.203   2.126
  566DIO    C1831665   2.759   4.121   2.027
  566DIO    C1931666   2.891   4.066   2.055
  566DIO     F631667   2.953   4.003   1.954
  566DIO    C2031668   2.549   4.252   2.101
  566DIO     O331669   2.480   4.290   2.220
  566DIO    C2131670   2.436   4.179   2.297
  566DIO    C2231671   2.347   4.087   2.213
  566DIO    C2331672   2.428   4.048   2.090
  566DIO     O431673   2.472   4.164   2.019
  566DIO    C2431674   2.214   4.153   2.171
  566DIO    C2531675   2.124   4.201   2.285
  566DIO    C2631676   2.085   4.091   2.383
  566DIO     H131677   3.806   4.126   2.085
  566DIO     H231678   3.765   3.980   2.500
  566DIO     H331679   3.588   4.199   2.466
  566DIO     H431680   3.336   4.222   2.447
  566DIO     H531681   3.337   3.977   2.085
  566DIO     H631682   2.728   4.325   2.308
  566DIO     H731683   2.716   4.104   1.929
  566DIO     H831684   2.559   4.345   2.043
  566DIO     H931685   2.523   4.124   2.335
  566DIO    H1031686   2.383   4.217   2.384
  566DIO    H1131687   2.325   3.996   2.270
  566DIO    H1231688   2.367   3.989   2.021
  566DIO    H1331689   2.514   3.986   2.117
  566DIO    H1431690   2.234   4.240   2.106
  566DIO    H1531691   2.158   4.082   2.110
  566DIO    H1631692   2.171   4.283   2.339
  566DIO    H1731693   2.032   4.242   2.241
  566DIO    H1831694   2.041   4.005   2.330
  566DIO    H1931695   2.172   4.056   2.440
  566DIO    H2031696   2.012   4.128   2.454
  567DIO     F131697   9.445   2.547   3.265
  567DIO     C131698   9.368   2.450   3.317
  567DIO     C231699   9.224   2.467   3.318
  567DIO     C331700   9.135   2.364   3.376
  567DIO     C431701   9.200   2.243   3.431
  567DIO     C531702   9.345   2.228   3.429
  567DIO     F231703   9.400   2.115   3.476
  567DIO     C631704   9.428   2.331   3.372
  567DIO     F331705   9.562   2.317   3.372
  567DIO     C731706   8.988   2.380   3.379
  567DIO     C831707   8.911   2.360   3.504
  567DIO     C931708   8.767   2.375   3.506
  567DIO    C1031709   8.694   2.400   3.383
  567DIO    C1131710   8.767   2.427   3.260
  567DIO    C1231711   8.911   2.415   3.259
  567DIO     F431712   8.976   2.436   3.142
  567DIO     O131713   8.562   2.437   3.397
  567DIO    C1331714   8.467   2.399   3.302
  567DIO     O231715   8.466   2.310   3.213
  567DIO    C1431716   8.338   2.466   3.321
  567DIO    C1531717   8.272   2.471   3.453
  567DIO     F531718   8.335   2.422   3.562
  567DIO    C1631719   8.141   2.531   3.473
  567DIO    C1731720   8.065   2.582   3.359
  567DIO    C1831721   8.134   2.594   3.231
  567DIO    C1931722   8.266   2.535   3.212
  567DIO     F631723   8.328   2.562   3.095
  567DIO    C2031724   7.925   2.634   3.376
  567DIO     O331725   7.855   2.577   3.487
  567DIO    C2131726   7.811   2.444   3.462
  567DIO    C2231727   7.722   2.438   3.339
  567DIO    C2331728   7.803   2.498   3.224
  567DIO     O431729   7.847   2.630   3.256
  567DIO    C2431730   7.590   2.515   3.356
  567DIO    C2531731   7.499   2.468   3.470
  567DIO    C2631732   7.460   2.321   3.461
  567DIO     H131733   9.181   2.557   3.275
  567DIO     H231734   9.140   2.160   3.466
  567DIO     H331735   8.963   2.338   3.596
  567DIO     H431736   8.712   2.368   3.599
  567DIO     H531737   8.712   2.452   3.170
  567DIO     H631738   8.103   2.539   3.574
  567DIO     H731739   8.091   2.651   3.150
  567DIO     H831740   7.934   2.741   3.400
  567DIO     H931741   7.898   2.378   3.451
  567DIO    H1031742   7.758   2.409   3.551
  567DIO    H1131743   7.700   2.334   3.315
  567DIO    H1231744   7.742   2.505   3.133
  567DIO    H1331745   7.889   2.435   3.199
  567DIO    H1431746   7.609   2.622   3.370
  567DIO    H1531747   7.533   2.508   3.262
  567DIO    H1631748   7.546   2.488   3.567
  567DIO    H1731749   7.407   2.528   3.468
  567DIO    H1831750   7.417   2.298   3.364
  567DIO    H1931751   7.547   2.256   3.477
  567DIO    H2031752   7.387   2.297   3.538
  568DIO     F131753   9.955   8.386   7.560
  568DIO     C131754   9.877   8.347   7.663
  568DIO     C231755   9.733   8.361   7.652
  568DIO     C331756   9.644   8.321   7.764
  568DIO     C431757   9.710   8.265   7.885
  568DIO     C531758   9.854   8.253   7.893
  568DIO     F231759   9.910   8.198   8.003
  568DIO     C631760   9.938   8.293   7.782
  568DIO     F331761  10.072   8.282   7.792
  568DIO     C731762   9.498   8.334   7.756
  568DIO     C831763   9.421   8.401   7.863
  568DIO     C931764   9.276   8.414   7.855
  568DIO    C1031765   9.204   8.353   7.746
  568DIO    C1131766   9.276   8.293   7.635
  568DIO    C1231767   9.420   8.282   7.641
  568DIO     F431768   9.485   8.222   7.540
  568DIO     O131769   9.071   8.389   7.732
  568DIO    C1331770   8.977   8.298   7.685
  568DIO     O231771   8.976   8.173   7.676
  568DIO    C1431772   8.848   8.362   7.655
  568DIO    C1531773   8.781   8.452   7.752
  568DIO     F531774   8.844   8.487   7.866
  568DIO    C1631775   8.651   8.510   7.727
  568DIO    C1731776   8.575   8.475   7.608
  568DIO    C1831777   8.644   8.399   7.504
  568DIO    C1931778   8.775   8.343   7.528
  568DIO     F631779   8.838   8.287   7.422
  568DIO    C2031780   8.434   8.525   7.586
  568DIO     O331781   8.364   8.555   7.708
  568DIO    C2131782   8.321   8.438   7.776
  568DIO    C2231783   8.232   8.352   7.687
  568DIO    C2331784   8.313   8.322   7.560
  568DIO     O431785   8.357   8.443   7.499
  568DIO    C2431786   8.099   8.422   7.649
  568DIO    C2531787   8.008   8.461   7.766
  568DIO    C2631788   7.970   8.344   7.856
  568DIO     H131789   9.691   8.400   7.561
  568DIO     H231790   9.649   8.225   7.965
  568DIO     H331791   9.472   8.446   7.947
  568DIO     H431792   9.221   8.470   7.929
  568DIO     H531793   9.222   8.252   7.551
  568DIO     H631794   8.613   8.583   7.798
  568DIO     H731795   8.601   8.389   7.405
  568DIO     H831796   8.444   8.621   7.535
  568DIO     H931797   8.407   8.381   7.811
  568DIO    H1031798   8.268   8.470   7.867
  568DIO    H1131799   8.209   8.258   7.737
  568DIO    H1231800   8.252   8.268   7.488
  568DIO    H1331801   8.399   8.258   7.584
  568DIO    H1431802   8.119   8.512   7.590
  568DIO    H1531803   8.043   8.355   7.583
  568DIO    H1631804   8.056   8.539   7.826
  568DIO    H1731805   7.917   8.505   7.725
  568DIO    H1831806   7.926   8.262   7.798
  568DIO    H1931807   8.057   8.305   7.910
  568DIO    H2031808   7.896   8.377   7.930
  569DIO     F131809   9.083   0.914   8.818
  569DIO     C131810   9.005   1.022   8.795
  569DIO     C231811   8.861   1.006   8.790
  569DIO     C331812   8.772   1.121   8.763
  569DIO     C431813   8.838   1.253   8.743
  569DIO     C531814   8.982   1.266   8.749
  569DIO     F231815   9.038   1.388   8.736
  569DIO     C631816   9.066   1.151   8.776
  569DIO     F331817   9.200   1.165   8.780
  569DIO     C731818   8.626   1.107   8.756
  569DIO     C831819   8.549   1.160   8.641
  569DIO     C931820   8.404   1.146   8.635
  569DIO    C1031821   8.332   1.088   8.746
  569DIO    C1131822   8.404   1.028   8.856
  569DIO    C1231823   8.548   1.039   8.861
  569DIO     F431824   8.613   0.987   8.968
  569DIO     O131825   8.199   1.057   8.723
  569DIO    C1331826   8.105   1.067   8.824
  569DIO     O231827   8.104   1.127   8.935
  569DIO    C1431828   7.976   1.008   8.788
  569DIO    C1531829   7.909   1.039   8.659
  569DIO     F531830   7.972   1.116   8.568
  569DIO    C1631831   7.779   0.987   8.624
  569DIO    C1731832   7.703   0.906   8.718
  569DIO    C1831833   7.772   0.860   8.838
  569DIO    C1931834   7.903   0.911   8.873
  569DIO     F631835   7.966   0.852   8.977
  569DIO    C2031836   7.562   0.861   8.688
  569DIO     O331837   7.492   0.946   8.597
  569DIO    C2131838   7.449   1.067   8.657
  569DIO    C2231839   7.360   1.039   8.778
  569DIO    C2331840   7.441   0.950   8.872
  569DIO     O431841   7.485   0.832   8.805
  569DIO    C2431842   7.227   0.970   8.740
  569DIO    C2531843   7.136   1.047   8.644
  569DIO    C2631844   7.098   1.185   8.693
  569DIO     H131845   8.819   0.907   8.806
  569DIO     H231846   8.777   1.342   8.733
  569DIO     H331847   8.600   1.206   8.558
  569DIO     H431848   8.349   1.178   8.547
  569DIO     H531849   8.350   0.979   8.936
  569DIO     H631850   7.741   1.007   8.524
  569DIO     H731851   7.729   0.782   8.901
  569DIO     H831852   7.572   0.765   8.635
  569DIO     H931853   7.535   1.128   8.687
  569DIO    H1031854   7.396   1.126   8.582
  569DIO    H1131855   7.337   1.133   8.830
  569DIO    H1231856   7.380   0.918   8.957
  569DIO    H1331857   7.527   1.004   8.913
  569DIO    H1431858   7.247   0.871   8.697
  569DIO    H1531859   7.171   0.951   8.833
  569DIO    H1631860   7.184   1.054   8.545
  569DIO    H1731861   7.045   0.988   8.629
  569DIO    H1831862   7.054   1.181   8.793
  569DIO    H1931863   7.185   1.252   8.696
  569DIO    H2031864   7.024   1.230   8.625
  570DIO     F131865   9.645   3.452   2.844
  570DIO     C131866   9.568   3.370   2.770
  570DIO     C231867   9.423   3.375   2.786
  570DIO     C331868   9.335   3.286   2.708
  570DIO     C431869   9.400   3.195   2.612
  570DIO     C531870   9.544   3.192   2.597
  570DIO     F231871   9.600   3.110   2.506
  570DIO     C631872   9.628   3.279   2.675
  570DIO     F331873   9.762   3.275   2.662
  570DIO     C731874   9.188   3.289   2.724
  570DIO     C831875   9.111   3.165   2.746
  570DIO     C931876   8.966   3.167   2.761
  570DIO    C1031877   8.894   3.292   2.744
  570DIO    C1131878   8.966   3.417   2.730
  570DIO    C1231879   9.110   3.414   2.717
  570DIO     F431880   9.175   3.531   2.698
  570DIO     O131881   8.762   3.291   2.783
  570DIO    C1331882   8.667   3.368   2.716
  570DIO     O231883   8.666   3.423   2.603
  570DIO    C1431884   8.538   3.372   2.786
  570DIO    C1531885   8.472   3.249   2.834
  570DIO     F531886   8.534   3.130   2.824
  570DIO    C1631887   8.341   3.251   2.897
  570DIO    C1731888   8.265   3.375   2.908
  570DIO    C1831889   8.334   3.499   2.877
  570DIO    C1931890   8.466   3.498   2.815
  570DIO     F631891   8.528   3.617   2.802
  570DIO    C2031892   8.124   3.376   2.963
  570DIO     O331893   8.055   3.252   2.946
  570DIO    C2131894   8.011   3.232   2.812
  570DIO    C2231895   7.922   3.347   2.766
  570DIO    C2331896   8.003   3.475   2.784
  570DIO     O431897   8.047   3.488   2.919
  570DIO    C2431898   7.789   3.356   2.844
  570DIO    C2531899   7.699   3.233   2.837
  570DIO    C2631900   7.660   3.192   2.696
  570DIO     H131901   9.381   3.446   2.857
  570DIO     H231902   9.340   3.134   2.545
  570DIO     H331903   9.163   3.070   2.757
  570DIO     H431904   8.911   3.078   2.786
  570DIO     H531905   8.912   3.510   2.723
  570DIO     H631906   8.303   3.158   2.939
  570DIO     H731907   8.291   3.595   2.904
  570DIO     H831908   8.134   3.389   3.072
  570DIO     H931909   8.098   3.221   2.746
  570DIO    H1031910   7.958   3.136   2.808
  570DIO    H1131911   7.900   3.334   2.659
  570DIO    H1231912   7.942   3.563   2.761
  570DIO    H1331913   8.089   3.477   2.716
  570DIO    H1431914   7.809   3.377   2.950
  570DIO    H1531915   7.733   3.442   2.806
  570DIO    H1631916   7.746   3.148   2.888
  570DIO    H1731917   7.607   3.254   2.893
  570DIO    H1831918   7.616   3.277   2.641
  570DIO    H1931919   7.747   3.156   2.639
  570DIO    H2031920   7.587   3.112   2.698
  571DIO     F131921   3.847   4.242   0.878
  571DIO     C131922   3.770   4.351   0.893
  571DIO     C231923   3.626   4.338   0.882
  571DIO     C331924   3.537   4.455   0.895
  571DIO     C431925   3.602   4.586   0.922
  571DIO     C531926   3.747   4.596   0.932
  571DIO     F231927   3.802   4.716   0.961
  571DIO     C631928   3.830   4.480   0.918
  571DIO     F331929   3.964   4.491   0.926
  571DIO     C731930   3.390   4.444   0.884
  571DIO     C831931   3.313   4.533   0.795
  571DIO     C931932   3.169   4.523   0.784
  571DIO    C1031933   3.096   4.430   0.869
  571DIO    C1131934   3.168   4.336   0.952
  571DIO    C1231935   3.313   4.345   0.961
  571DIO     F431936   3.377   4.260   1.043
  571DIO     O131937   2.964   4.408   0.836
  571DIO    C1331938   2.869   4.383   0.935
  571DIO     O231939   2.868   4.403   1.060
  571DIO    C1431940   2.740   4.340   0.880
  571DIO    C1531941   2.674   4.413   0.770
  571DIO     F531942   2.736   4.517   0.711
  571DIO    C1631943   2.543   4.377   0.719
  571DIO    C1731944   2.467   4.268   0.781
  571DIO    C1831945   2.536   4.184   0.878
  571DIO    C1931946   2.668   4.220   0.928
  571DIO     F631947   2.730   4.130   1.006
  571DIO    C2031948   2.327   4.236   0.737
  571DIO     O331949   2.257   4.348   0.680
  571DIO    C2131950   2.213   4.441   0.778
  571DIO    C2231951   2.124   4.373   0.882
  571DIO    C2331952   2.205   4.257   0.940
  571DIO     O431953   2.249   4.169   0.837
  571DIO    C2431954   1.991   4.320   0.823
  571DIO    C2531955   1.901   4.426   0.759
  571DIO    C2631956   1.862   4.539   0.852
  571DIO     H131957   3.583   4.240   0.864
  571DIO     H231958   3.542   4.673   0.943
  571DIO     H331959   3.365   4.605   0.732
  571DIO     H431960   3.113   4.582   0.712
  571DIO     H531961   3.114   4.263   1.011
  571DIO     H631962   2.505   4.429   0.632
  571DIO     H731963   2.493   4.090   0.911
  571DIO     H831964   2.336   4.164   0.655
  571DIO     H931965   2.300   4.487   0.827
  571DIO    H1031966   2.160   4.521   0.727
  571DIO    H1131967   2.102   4.444   0.963
  571DIO    H1231968   2.144   4.198   1.010
  571DIO    H1331969   2.291   4.294   0.997
  571DIO    H1431970   2.011   4.243   0.748
  571DIO    H1531971   1.935   4.272   0.904
  571DIO    H1631972   1.948   4.466   0.669
  571DIO    H1731973   1.809   4.376   0.725
  571DIO    H1831974   1.818   4.502   0.945
  571DIO    H1931975   1.949   4.601   0.877
  571DIO    H2031976   1.789   4.604   0.803
  572DIO     F131977   3.158   7.044   5.934
  572DIO     C131978   3.081   7.054   6.044
  572DIO     C231979   2.937   7.061   6.028
  572DIO     C331980   2.848   7.075   6.146
  572DIO     C431981   2.913   7.078   6.279
  572DIO     C531982   3.058   7.070   6.291
  572DIO     F231983   3.113   7.069   6.414
  572DIO     C631984   3.141   7.058   6.175
  572DIO     F331985   3.275   7.052   6.188
  572DIO     C731986   2.701   7.083   6.132
  572DIO     C831987   2.624   7.190   6.200
  572DIO     C931988   2.480   7.198   6.187
  572DIO    C1031989   2.407   7.095   6.115
  572DIO    C1131990   2.479   6.993   6.042
  572DIO    C1231991   2.624   6.986   6.053
  572DIO     F431992   2.688   6.887   5.988
  572DIO     O131993   2.275   7.122   6.087
  572DIO    C1331994   2.180   7.020   6.085
  572DIO     O231995   2.179   6.903   6.132
  572DIO    C1431996   2.051   7.064   6.030
  572DIO    C1531997   1.985   7.187   6.077
  572DIO     F531998   2.047   7.268   6.165
  572DIO    C1631999   1.854   7.229   6.030
  572DIO    C1732000   1.778   7.144   5.938
  572DIO    C1832001   1.847   7.031   5.878
  572DIO    C1932002   1.979   6.991   5.924
  572DIO     F632003   2.041   6.894   5.853
  572DIO    C2032004   1.638   7.180   5.897
  572DIO     O332005   1.568   7.260   5.993
  572DIO    C2132006   1.524   7.185   6.106
  572DIO    C2232007   1.435   7.069   6.063
  572DIO    C2332008   1.516   6.987   5.963
  572DIO     O432009   1.560   7.068   5.854
  572DIO    C2432010   1.302   7.115   5.998
  572DIO    C2532011   1.212   7.201   6.086
  572DIO    C2632012   1.173   7.136   6.218
  572DIO     H132013   2.894   7.057   5.929
  572DIO     H232014   2.853   7.077   6.369
  572DIO     H332015   2.676   7.267   6.255
  572DIO     H432016   2.424   7.281   6.229
  572DIO     H532017   2.425   6.919   5.984
  572DIO     H632018   1.816   7.325   6.062
  572DIO     H732019   1.804   6.978   5.793
  572DIO     H832020   1.647   7.244   5.808
  572DIO     H932021   1.611   7.149   6.162
  572DIO    H1032022   1.471   7.254   6.173
  572DIO    H1132023   1.413   7.006   6.150
  572DIO    H1232024   1.455   6.906   5.921
  572DIO    H1332025   1.602   6.939   6.011
  572DIO    H1432026   1.322   7.170   5.906
  572DIO    H1532027   1.246   7.026   5.969
  572DIO    H1632028   1.259   7.298   6.106
  572DIO    H1732029   1.120   7.223   6.030
  572DIO    H1832030   1.129   7.037   6.202
  572DIO    H1932031   1.260   7.125   6.284
  572DIO    H2032032   1.100   7.198   6.271
  573DIO     F132033   7.070   7.341   4.102
  573DIO     C132034   6.993   7.232   4.087
  573DIO     C232035   6.849   7.245   4.097
  573DIO     C332036   6.760   7.128   4.083
  573DIO     C432037   6.825   6.998   4.056
  573DIO     C532038   6.970   6.987   4.046
  573DIO     F232039   7.025   6.868   4.017
  573DIO     C632040   7.053   7.104   4.061
  573DIO     F332041   7.187   7.092   4.052
  573DIO     C732042   6.614   7.139   4.095
  573DIO     C832043   6.536   7.049   4.184
  573DIO     C932044   6.392   7.060   4.195
  573DIO    C1032045   6.319   7.153   4.110
  573DIO    C1132046   6.392   7.248   4.027
  573DIO    C1232047   6.536   7.239   4.019
  573DIO     F432048   6.601   7.324   3.937
  573DIO     O132049   6.187   7.175   4.143
  573DIO    C1332050   6.092   7.200   4.044
  573DIO     O232051   6.092   7.181   3.919
  573DIO    C1432052   5.963   7.243   4.099
  573DIO    C1532053   5.897   7.169   4.209
  573DIO     F532054   5.960   7.065   4.268
  573DIO    C1632055   5.766   7.206   4.260
  573DIO    C1732056   5.690   7.314   4.199
  573DIO    C1832057   5.759   7.399   4.102
  573DIO    C1932058   5.891   7.363   4.052
  573DIO     F632059   5.953   7.454   3.974
  573DIO    C2032060   5.550   7.346   4.243
  573DIO     O332061   5.480   7.235   4.299
  573DIO    C2132062   5.436   7.142   4.200
  573DIO    C2232063   5.347   7.210   4.097
  573DIO    C2332064   5.428   7.327   4.039
  573DIO     O432065   5.472   7.414   4.143
  573DIO    C2432066   5.215   7.262   4.156
  573DIO    C2532067   5.124   7.157   4.220
  573DIO    C2632068   5.086   7.044   4.127
  573DIO     H132069   6.806   7.343   4.116
  573DIO     H232070   6.765   6.910   4.035
  573DIO     H332071   6.588   6.977   4.246
  573DIO     H432072   6.337   7.000   4.266
  573DIO     H532073   6.337   7.320   3.969
  573DIO     H632074   5.728   7.153   4.346
  573DIO     H732075   5.716   7.493   4.070
  573DIO     H832076   5.559   7.418   4.325
  573DIO     H932077   5.523   7.096   4.152
  573DIO    H1032078   5.384   7.061   4.251
  573DIO    H1132079   5.325   7.140   4.016
  573DIO    H1232080   5.367   7.385   3.970
  573DIO    H1332081   5.514   7.290   3.982
  573DIO    H1432082   5.235   7.340   4.231
  573DIO    H1532083   5.158   7.312   4.076
  573DIO    H1632084   5.171   7.116   4.310
  573DIO    H1732085   5.032   7.207   4.254
  573DIO    H1832086   5.042   7.082   4.034
  573DIO    H1932087   5.172   6.982   4.101
  573DIO    H2032088   5.012   6.978   4.175
  574DIO     F132089   7.501   2.348   5.510
  574DIO     C132090   7.423   2.433   5.441
  574DIO     C232091   7.279   2.417   5.443
  574DIO     C332092   7.190   2.507   5.366
  574DIO     C432093   7.256   2.615   5.289
  574DIO     C532094   7.400   2.629   5.288
  574DIO     F232095   7.455   2.732   5.220
  574DIO     C632096   7.484   2.540   5.364
  574DIO     F332097   7.618   2.554   5.362
  574DIO     C732098   7.044   2.491   5.367
  574DIO     C832099   6.967   2.486   5.240
  574DIO     C932100   6.822   2.471   5.241
  574DIO    C1032101   6.749   2.470   5.366
  574DIO    C1132102   6.822   2.466   5.492
  574DIO    C1232103   6.966   2.479   5.492
  574DIO     F432104   7.031   2.481   5.610
  574DIO     O132105   6.617   2.431   5.360
  574DIO    C1332106   6.523   2.486   5.446
  574DIO     O232107   6.522   2.591   5.516
  574DIO    C1432108   6.394   2.417   5.440
  574DIO    C1532109   6.327   2.386   5.312
  574DIO     F532110   6.390   2.414   5.195
  574DIO    C1632111   6.197   2.324   5.304
  574DIO    C1732112   6.121   2.295   5.425
  574DIO    C1832113   6.190   2.309   5.553
  574DIO    C1932114   6.321   2.370   5.560
  574DIO     F632115   6.384   2.366   5.680
  574DIO    C2032116   5.980   2.241   5.419
  574DIO     O332117   5.910   2.276   5.298
  574DIO    C2132118   5.867   2.411   5.297
  574DIO    C2232119   5.778   2.441   5.418
  574DIO    C2332120   5.859   2.404   5.542
  574DIO     O432121   5.903   2.269   5.536
  574DIO    C2432122   5.645   2.362   5.416
  574DIO    C2532123   5.554   2.386   5.295
  574DIO    C2632124   5.516   2.532   5.275
  574DIO     H132125   7.236   2.337   5.503
  574DIO     H232126   7.195   2.690   5.239
  574DIO     H332127   7.018   2.489   5.145
  574DIO     H432128   6.767   2.459   5.149
  574DIO     H532129   6.768   2.460   5.586
  574DIO     H632130   6.158   2.296   5.206
  574DIO     H732131   6.147   2.269   5.644
  574DIO     H832132   5.990   2.132   5.416
  574DIO     H932133   5.953   2.478   5.296
  574DIO    H1032134   5.814   2.428   5.203
  574DIO    H1132135   5.755   2.548   5.421
  574DIO    H1232136   5.797   2.415   5.632
  574DIO    H1332137   5.945   2.471   5.554
  574DIO    H1432138   5.665   2.254   5.422
  574DIO    H1532139   5.589   2.387   5.506
  574DIO    H1632140   5.602   2.348   5.204
  574DIO    H1732141   5.463   2.327   5.308
  574DIO    H1832142   5.472   2.574   5.366
  574DIO    H1932143   5.602   2.593   5.247
  574DIO    H2032144   5.442   2.541   5.195
  575DIO     F132145   9.066   5.356   8.426
  575DIO     C132146   8.989   5.407   8.329
  575DIO     C232147   8.844   5.393   8.338
  575DIO     C332148   8.756   5.446   8.232
  575DIO     C432149   8.821   5.515   8.118
  575DIO     C532150   8.965   5.528   8.112
  575DIO     F232151   9.021   5.596   8.009
  575DIO     C632152   9.049   5.475   8.217
  575DIO     F332153   9.183   5.487   8.209
  575DIO     C732154   8.609   5.431   8.238
  575DIO     C832155   8.532   5.377   8.124
  575DIO     C932156   8.387   5.364   8.130
  575DIO    C1032157   8.315   5.412   8.246
  575DIO    C1132158   8.387   5.458   8.363
  575DIO    C1232159   8.531   5.469   8.358
  575DIO     F432160   8.596   5.517   8.466
  575DIO     O132161   8.183   5.374   8.256
  575DIO    C1332162   8.088   5.458   8.313
  575DIO     O232163   8.087   5.582   8.337
  575DIO    C1432164   7.959   5.392   8.335
  575DIO    C1532165   7.893   5.314   8.228
  575DIO     F532166   7.955   5.293   8.111
  575DIO    C1632167   7.762   5.253   8.246
  575DIO    C1732168   7.686   5.274   8.369
  575DIO    C1832169   7.755   5.337   8.481
  575DIO    C1932170   7.887   5.396   8.464
  575DIO     F632171   7.949   5.439   8.576
  575DIO    C2032172   7.545   5.222   8.384
  575DIO     O332173   7.476   5.206   8.260
  575DIO    C2132174   7.432   5.331   8.206
  575DIO    C2232175   7.343   5.405   8.305
  575DIO    C2332176   7.424   5.420   8.434
  575DIO     O432177   7.468   5.293   8.481
  575DIO    C2432178   7.210   5.332   8.334
  575DIO    C2532179   7.120   5.307   8.213
  575DIO    C2632180   7.081   5.433   8.138
  575DIO     H132181   8.802   5.343   8.424
  575DIO     H232182   8.761   5.564   8.043
  575DIO     H332183   8.584   5.343   8.035
  575DIO     H432184   8.332   5.317   8.050
  575DIO     H532185   8.333   5.489   8.452
  575DIO     H632186   7.724   5.189   8.167
  575DIO     H732187   7.712   5.335   8.580
  575DIO     H832188   7.555   5.120   8.424
  575DIO     H932189   7.519   5.392   8.178
  575DIO    H1032190   7.379   5.310   8.112
  575DIO    H1132191   7.321   5.505   8.266
  575DIO    H1232192   7.363   5.465   8.512
  575DIO    H1332193   7.510   5.486   8.418
  575DIO    H1432194   7.230   5.235   8.382
  575DIO    H1532195   7.154   5.391   8.407
  575DIO    H1632196   7.167   5.236   8.144
  575DIO    H1732197   7.028   5.258   8.248
  575DIO    H1832198   7.037   5.507   8.205
  575DIO    H1932199   7.168   5.478   8.088
  575DIO    H2032200   7.008   5.410   8.060
  576DIO     F132201   3.517   1.872   7.636
  576DIO     C132202   3.439   1.776   7.689
  576DIO     C232203   3.295   1.793   7.689
  576DIO     C332204   3.207   1.690   7.748
  576DIO     C432205   3.272   1.569   7.804
  576DIO     C532206   3.416   1.555   7.803
  576DIO     F232207   3.472   1.442   7.851
  576DIO     C632208   3.500   1.657   7.745
  576DIO     F332209   3.634   1.643   7.745
  576DIO     C732210   3.060   1.706   7.751
  576DIO     C832211   2.983   1.687   7.876
  576DIO     C932212   2.838   1.702   7.878
  576DIO    C1032213   2.766   1.726   7.755
  576DIO    C1132214   2.838   1.753   7.632
  576DIO    C1232215   2.982   1.740   7.630
  576DIO     F432216   3.047   1.760   7.514
  576DIO     O132217   2.634   1.763   7.768
  576DIO    C1332218   2.539   1.724   7.674
  576DIO     O232219   2.538   1.634   7.585
  576DIO    C1432220   2.410   1.792   7.692
  576DIO    C1532221   2.344   1.798   7.824
  576DIO     F532222   2.406   1.750   7.934
  576DIO    C1632223   2.213   1.858   7.843
  576DIO    C1732224   2.137   1.908   7.729
  576DIO    C1832225   2.206   1.919   7.601
  576DIO    C1932226   2.337   1.860   7.582
  576DIO     F632227   2.400   1.886   7.466
  576DIO    C2032228   1.996   1.961   7.746
  576DIO     O332229   1.927   1.905   7.857
  576DIO    C2132230   1.883   1.771   7.834
  576DIO    C2232231   1.794   1.764   7.710
  576DIO    C2332232   1.875   1.823   7.594
  576DIO     O432233   1.919   1.955   7.625
  576DIO    C2432234   1.661   1.841   7.726
  576DIO    C2532235   1.571   1.795   7.841
  576DIO    C2632236   1.532   1.648   7.834
  576DIO     H132237   3.253   1.882   7.645
  576DIO     H232238   3.211   1.487   7.840
  576DIO     H332239   3.035   1.667   7.969
  576DIO     H432240   2.783   1.697   7.971
  576DIO     H532241   2.784   1.776   7.541
  576DIO     H632242   2.175   1.868   7.944
  576DIO     H732243   2.163   1.975   7.519
  576DIO     H832244   2.006   2.068   7.768
  576DIO     H932245   1.970   1.705   7.823
  576DIO    H1032246   1.830   1.737   7.923
  576DIO    H1132247   1.772   1.659   7.687
  576DIO    H1232248   1.814   1.829   7.504
  576DIO    H1332249   1.961   1.759   7.570
  576DIO    H1432250   1.681   1.949   7.740
  576DIO    H1532251   1.605   1.833   7.632
  576DIO    H1632252   1.618   1.816   7.937
  576DIO    H1732253   1.479   1.856   7.838
  576DIO    H1832254   1.488   1.624   7.736
  576DIO    H1932255   1.619   1.584   7.850
  576DIO    H2032256   1.459   1.625   7.911
  577DIO     F132257   6.374   2.190   6.900
  577DIO     C132258   6.297   2.191   7.010
  577DIO     C232259   6.152   2.200   6.996
  577DIO     C332260   6.064   2.204   7.114
  577DIO     C432261   6.129   2.196   7.247
  577DIO     C532262   6.273   2.188   7.259
  577DIO     F232263   6.329   2.177   7.381
  577DIO     C632264   6.357   2.185   7.141
  577DIO     F332265   6.491   2.178   7.154
  577DIO     C732266   5.917   2.213   7.101
  577DIO     C832267   5.840   2.315   7.177
  577DIO     C932268   5.695   2.324   7.165
  577DIO    C1032269   5.623   2.227   7.085
  577DIO    C1132270   5.695   2.130   7.004
  577DIO    C1232271   5.839   2.123   7.014
  577DIO     F432272   5.904   2.030   6.942
  577DIO     O132273   5.491   2.256   7.059
  577DIO    C1332274   5.396   2.154   7.048
  577DIO     O232275   5.395   2.034   7.086
  577DIO    C1432276   5.267   2.202   6.998
  577DIO    C1532277   5.201   2.321   7.054
  577DIO     F532278   5.263   2.395   7.148
  577DIO    C1632279   5.070   2.367   7.011
  577DIO    C1732280   4.994   2.290   6.912
  577DIO    C1832281   5.063   2.182   6.843
  577DIO    C1932282   5.195   2.138   6.886
  577DIO     F632283   5.257   2.047   6.808
  577DIO    C2032284   4.853   2.329   6.874
  577DIO     O332285   4.784   2.401   6.976
  577DIO    C2132286   4.740   2.317   7.083
  577DIO    C2232287   4.651   2.205   7.031
  577DIO    C2332288   4.732   2.131   6.924
  577DIO     O432289   4.776   2.220   6.823
  577DIO    C2432290   4.518   2.256   6.970
  577DIO    C2532291   4.428   2.335   7.065
  577DIO    C2632292   4.389   2.259   7.191
  577DIO     H132293   6.110   2.203   6.896
  577DIO     H232294   6.069   2.188   7.336
  577DIO     H332295   5.892   2.387   7.238
  577DIO     H432296   5.640   2.403   7.213
  577DIO     H532297   5.641   2.062   6.941
  577DIO     H632298   5.032   2.460   7.050
  577DIO     H732299   5.020   2.136   6.755
  577DIO     H832300   4.863   2.400   6.791
  577DIO     H932301   4.827   2.276   7.136
  577DIO    H1032302   4.687   2.380   7.155
  577DIO    H1132303   4.629   2.135   7.112
  577DIO    H1232304   4.671   2.053   6.876
  577DIO    H1332305   4.818   2.080   6.969
  577DIO    H1432306   4.538   2.318   6.882
  577DIO    H1532307   4.462   2.169   6.933
  577DIO    H1632308   4.475   2.430   7.092
  577DIO    H1732309   4.336   2.361   7.011
  577DIO    H1832310   4.345   2.162   7.167
  577DIO    H1932311   4.476   2.243   7.256
  577DIO    H2032312   4.316   2.316   7.248
  578DIO     F132313   2.460   4.595   6.482
  578DIO     C132314   2.383   4.491   6.519
  578DIO     C232315   2.239   4.508   6.522
  578DIO     C332316   2.150   4.397   6.564
  578DIO     C432317   2.215   4.269   6.599
  578DIO     C532318   2.360   4.255   6.595
  578DIO     F232319   2.415   4.135   6.624
  578DIO     C632320   2.443   4.365   6.555
  578DIO     F332321   2.577   4.351   6.552
  578DIO     C732322   2.003   4.412   6.569
  578DIO     C832323   1.926   4.373   6.689
  578DIO     C932324   1.782   4.388   6.694
  578DIO    C1032325   1.709   4.431   6.576
  578DIO    C1132326   1.781   4.477   6.459
  578DIO    C1232327   1.926   4.465   6.455
  578DIO     F432328   1.990   4.504   6.343
  578DIO     O132329   1.577   4.466   6.595
  578DIO    C1332330   1.482   4.443   6.495
  578DIO     O232331   1.481   4.369   6.394
  578DIO    C1432332   1.353   4.506   6.525
  578DIO    C1532333   1.287   4.491   6.656
  578DIO     F532334   1.349   4.426   6.756
  578DIO    C1632335   1.156   4.547   6.685
  578DIO    C1732336   1.080   4.615   6.580
  578DIO    C1832337   1.149   4.646   6.455
  578DIO    C1932338   1.281   4.591   6.428
  578DIO     F632339   1.343   4.636   6.317
  578DIO    C2032340   0.940   4.664   6.605
  578DIO     O332341   0.870   4.591   6.706
  578DIO    C2132342   0.826   4.463   6.661
  578DIO    C2232343   0.737   4.476   6.538
  578DIO    C2332344   0.818   4.553   6.433
  578DIO     O432345   0.862   4.678   6.485
  578DIO    C2432346   0.604   4.550   6.566
  578DIO    C2532347   0.514   4.486   6.672
  578DIO    C2632348   0.475   4.342   6.641
  578DIO     H132349   2.196   4.603   6.493
  578DIO     H232350   2.155   4.181   6.621
  578DIO     H332351   1.978   4.338   6.777
  578DIO     H432352   1.726   4.367   6.785
  578DIO     H532353   1.727   4.515   6.373
  578DIO     H632354   1.118   4.540   6.786
  578DIO     H732355   1.106   4.715   6.384
  578DIO     H832356   0.949   4.766   6.645
  578DIO     H932357   0.913   4.400   6.639
  578DIO    H1032358   0.773   4.415   6.744
  578DIO    H1132359   0.715   4.377   6.499
  578DIO    H1232360   0.757   4.574   6.345
  578DIO    H1332361   0.904   4.494   6.399
  578DIO    H1432362   0.624   4.653   6.597
  578DIO    H1532363   0.548   4.557   6.473
  578DIO    H1632364   0.561   4.490   6.771
  578DIO    H1732365   0.422   4.545   6.679
  578DIO    H1832366   0.431   4.333   6.541
  578DIO    H1932367   0.562   4.275   6.646
  578DIO    H2032368   0.402   4.306   6.713
  579DIO     F132369   5.793   1.909   4.546
  579DIO     C132370   5.716   1.974   4.458
  579DIO     C232371   5.572   1.959   4.465
  579DIO     C332372   5.483   2.027   4.368
  579DIO     C432373   5.548   2.114   4.267
  579DIO     C532374   5.693   2.128   4.263
  579DIO     F232375   5.748   2.211   4.172
  579DIO     C632376   5.776   2.059   4.358
  579DIO     F332377   5.910   2.072   4.352
  579DIO     C732378   5.337   2.012   4.372
  579DIO     C832379   5.259   1.977   4.251
  579DIO     C932380   5.115   1.962   4.255
  579DIO    C1032381   5.042   1.992   4.377
  579DIO    C1132382   5.115   2.019   4.500
  579DIO    C1232383   5.259   2.031   4.497
  579DIO     F432384   5.324   2.062   4.611
  579DIO     O132385   4.910   1.953   4.381
  579DIO    C1332386   4.815   2.027   4.451
  579DIO     O232387   4.815   2.146   4.493
  579DIO    C1432388   4.686   1.958   4.462
  579DIO    C1532389   4.620   1.898   4.344
  579DIO     F532390   4.683   1.896   4.225
  579DIO    C1632391   4.489   1.835   4.352
  579DIO    C1732392   4.413   1.837   4.476
  579DIO    C1832393   4.482   1.881   4.597
  579DIO    C1932394   4.614   1.942   4.590
  579DIO     F632395   4.676   1.967   4.707
  579DIO    C2032396   4.273   1.782   4.483
  579DIO     O332397   4.203   1.787   4.358
  579DIO    C2132398   4.159   1.918   4.324
  579DIO    C2232399   4.070   1.976   4.434
  579DIO    C2332400   4.151   1.971   4.564
  579DIO     O432401   4.195   1.838   4.590
  579DIO    C2432402   3.938   1.899   4.451
  579DIO    C2532403   3.847   1.893   4.328
  579DIO    C2632404   3.809   2.030   4.274
  579DIO     H132405   5.529   1.895   4.542
  579DIO     H232406   5.488   2.174   4.200
  579DIO     H332407   5.311   1.957   4.158
  579DIO     H432408   5.060   1.929   4.168
  579DIO     H532409   5.060   2.035   4.592
  579DIO     H632410   4.451   1.785   4.264
  579DIO     H732411   4.439   1.864   4.695
  579DIO     H832412   4.282   1.676   4.507
  579DIO     H932413   4.246   1.983   4.307
  579DIO    H1032414   4.107   1.912   4.229
  579DIO    H1132415   4.048   2.081   4.411
  579DIO    H1232416   4.090   2.003   4.648
  579DIO    H1332417   4.237   2.038   4.559
  579DIO    H1432418   3.958   1.796   4.483
  579DIO    H1532419   3.881   1.946   4.533
  579DIO    H1632420   3.894   1.834   4.249
  579DIO    H1732421   3.755   1.840   4.355
  579DIO    H1832422   3.765   2.093   4.352
  579DIO    H1932423   3.895   2.082   4.232
  579DIO    H2032424   3.735   2.019   4.193
  580DIO     F132425   2.313   8.570   2.132
  580DIO     C132426   2.236   8.646   2.211
  580DIO     C232427   2.092   8.642   2.195
  580DIO     C332428   2.003   8.726   2.278
  580DIO     C432429   2.068   8.811   2.380
  580DIO     C532430   2.213   8.813   2.394
  580DIO     F232431   2.268   8.889   2.491
  580DIO     C632432   2.296   8.731   2.311
  580DIO     F332433   2.430   8.734   2.325
  580DIO     C732434   1.856   8.724   2.262
  580DIO     C832435   1.779   8.850   2.248
  580DIO     C932436   1.635   8.848   2.233
  580DIO    C1032437   1.562   8.723   2.241
  580DIO    C1132438   1.635   8.597   2.248
  580DIO    C1232439   1.779   8.599   2.261
  580DIO     F432440   1.844   8.481   2.272
  580DIO     O132441   1.430   8.726   2.202
  580DIO    C1332442   1.335   8.645   2.264
  580DIO     O232443   1.334   8.583   2.374
  580DIO    C1432444   1.206   8.645   2.195
  580DIO    C1532445   1.140   8.771   2.154
  580DIO     F532446   1.203   8.889   2.172
  580DIO    C1632447   1.009   8.774   2.091
  580DIO    C1732448   0.933   8.650   2.072
  580DIO    C1832449   1.002   8.524   2.096
  580DIO    C1932450   1.134   8.522   2.157
  580DIO     F632451   1.196   8.402   2.163
  580DIO    C2032452   0.793   8.653   2.017
  580DIO     O332453   0.723   8.775   2.042
  580DIO    C2132454   0.679   8.787   2.177
  580DIO    C2232455   0.590   8.670   2.217
  580DIO    C2332456   0.671   8.543   2.190
  580DIO     O432457   0.715   8.538   2.055
  580DIO    C2432458   0.458   8.665   2.138
  580DIO    C2532459   0.367   8.788   2.152
  580DIO    C2632460   0.328   8.819   2.296
  580DIO     H132461   2.049   8.576   2.120
  580DIO     H232462   2.008   8.867   2.451
  580DIO     H332463   1.831   8.945   2.243
  580DIO     H432464   1.580   8.939   2.214
  580DIO     H532465   1.580   8.504   2.249
  580DIO     H632466   0.971   8.869   2.056
  580DIO     H732467   0.959   8.430   2.063
  580DIO     H832468   0.802   8.647   1.908
  580DIO     H932469   0.766   8.794   2.244
  580DIO    H1032470   0.626   8.882   2.187
  580DIO    H1132471   0.568   8.675   2.324
  580DIO    H1232472   0.610   8.453   2.208
  580DIO    H1332473   0.757   8.536   2.258
  580DIO    H1432474   0.477   8.650   2.031
  580DIO    H1532475   0.401   8.577   2.170
  580DIO    H1632476   0.414   8.876   2.107
  580DIO    H1732477   0.275   8.770   2.095
  580DIO    H1832478   0.285   8.731   2.345
  580DIO    H1932479   0.415   8.852   2.355
  580DIO    H2032480   0.255   8.900   2.299
  581DIO     F132481   9.954   4.848   8.460
  581DIO     C132482   9.876   4.912   8.371
  581DIO     C232483   9.732   4.897   8.378
  581DIO     C332484   9.644   4.964   8.280
  581DIO     C432485   9.709   5.050   8.178
  581DIO     C532486   9.853   5.064   8.174
  581DIO     F232487   9.909   5.145   8.082
  581DIO     C632488   9.937   4.996   8.270
  581DIO     F332489  10.071   5.009   8.264
  581DIO     C732490   9.497   4.949   8.285
  581DIO     C832491   9.420   4.913   8.164
  581DIO     C932492   9.275   4.898   8.168
  581DIO    C1032493   9.203   4.929   8.290
  581DIO    C1132494   9.275   4.958   8.412
  581DIO    C1232495   9.419   4.970   8.409
  581DIO     F432496   9.484   5.002   8.522
  581DIO     O132497   9.071   4.890   8.294
  581DIO    C1332498   8.976   4.965   8.363
  581DIO     O232499   8.975   5.084   8.404
  581DIO    C1432500   8.847   4.897   8.375
  581DIO    C1532501   8.781   4.834   8.258
  581DIO     F532502   8.843   4.831   8.138
  581DIO    C1632503   8.650   4.772   8.266
  581DIO    C1732504   8.574   4.775   8.391
  581DIO    C1832505   8.643   4.820   8.511
  581DIO    C1932506   8.774   4.881   8.503
  581DIO     F632507   8.837   4.908   8.620
  581DIO    C2032508   8.433   4.721   8.398
  581DIO     O332509   8.364   4.724   8.273
  581DIO    C2132510   8.320   4.855   8.238
  581DIO    C2232511   8.231   4.914   8.347
  581DIO    C2332512   8.312   4.910   8.476
  581DIO     O432513   8.356   4.777   8.505
  581DIO    C2432514   8.098   4.837   8.365
  581DIO    C2532515   8.008   4.830   8.242
  581DIO    C2632516   7.969   4.966   8.186
  581DIO     H132517   9.690   4.835   8.455
  581DIO     H232518   9.648   5.109   8.111
  581DIO     H332519   9.472   4.891   8.071
  581DIO     H432520   9.220   4.863   8.082
  581DIO     H532521   9.221   4.975   8.504
  581DIO     H632522   8.612   4.720   8.179
  581DIO     H732523   8.600   4.805   8.609
  581DIO     H832524   8.443   4.614   8.423
  581DIO     H932525   8.407   4.919   8.220
  581DIO    H1032526   8.267   4.848   8.142
  581DIO    H1132527   8.209   5.018   8.322
  581DIO    H1232528   8.251   4.943   8.561
  581DIO    H1332529   8.398   4.978   8.471
  581DIO    H1432530   8.118   4.734   8.398
  581DIO    H1532531   8.042   4.885   8.446
  581DIO    H1632532   8.055   4.770   8.163
  581DIO    H1732533   7.916   4.776   8.270
  581DIO    H1832534   7.925   5.030   8.263
  581DIO    H1932535   8.056   5.018   8.143
  581DIO    H2032536   7.896   4.954   8.106
  582DIO     F132537   8.624   5.920   2.801
  582DIO     C132538   8.546   5.852   2.888
  582DIO     C232539   8.402   5.868   2.882
  582DIO     C332540   8.313   5.798   2.977
  582DIO     C432541   8.379   5.709   3.076
  582DIO     C532542   8.523   5.695   3.080
  582DIO     F232543   8.578   5.611   3.170
  582DIO     C632544   8.607   5.766   2.986
  582DIO     F332545   8.741   5.753   2.992
  582DIO     C732546   8.167   5.813   2.973
  582DIO     C832547   8.090   5.846   3.095
  582DIO     C932548   7.945   5.861   3.091
  582DIO    C1032549   7.872   5.833   2.968
  582DIO    C1132550   7.945   5.809   2.845
  582DIO    C1232551   8.089   5.796   2.848
  582DIO     F432552   8.154   5.768   2.734
  582DIO     O132553   7.740   5.873   2.966
  582DIO    C1332554   7.646   5.799   2.895
  582DIO     O232555   7.645   5.682   2.849
  582DIO    C1432556   7.517   5.868   2.885
  582DIO    C1532557   7.450   5.927   3.003
  582DIO     F532558   7.513   5.927   3.123
  582DIO    C1632559   7.320   5.990   2.997
  582DIO    C1732560   7.244   5.990   2.872
  582DIO    C1832561   7.313   5.949   2.751
  582DIO    C1932562   7.444   5.887   2.757
  582DIO     F632563   7.507   5.864   2.639
  582DIO    C2032564   7.103   6.045   2.866
  582DIO     O332565   7.033   6.038   2.991
  582DIO    C2132566   6.990   5.906   3.023
  582DIO    C2232567   6.901   5.850   2.912
  582DIO    C2332568   6.982   5.858   2.783
  582DIO     O432569   7.026   5.991   2.758
  582DIO    C2432570   6.768   5.928   2.896
  582DIO    C2532571   6.677   5.931   3.020
  582DIO    C2632572   6.639   5.793   3.072
  582DIO     H132573   8.359   5.933   2.806
  582DIO     H232574   8.318   5.648   3.142
  582DIO     H332575   8.141   5.864   3.188
  582DIO     H432576   7.890   5.893   3.178
  582DIO     H532577   7.891   5.794   2.753
  582DIO     H632578   7.281   6.038   3.086
  582DIO     H732579   7.270   5.967   2.653
  582DIO     H832580   7.113   6.152   2.845
  582DIO     H932581   7.076   5.841   3.039
  582DIO    H1032582   6.937   5.910   3.118
  582DIO    H1132583   6.878   5.745   2.933
  582DIO    H1232584   6.920   5.827   2.697
  582DIO    H1332585   7.068   5.790   2.786
  582DIO    H1432586   6.788   6.031   2.866
  582DIO    H1532587   6.712   5.882   2.814
  582DIO    H1632588   6.725   5.989   3.100
  582DIO    H1732589   6.586   5.985   2.993
  582DIO    H1832590   6.595   5.732   2.992
  582DIO    H1932591   6.725   5.740   3.112
  582DIO    H2032592   6.565   5.803   3.152
  583DIO     F132593   4.510   5.824   4.023
  583DIO     C132594   4.432   5.866   3.921
  583DIO     C232595   4.288   5.853   3.931
  583DIO     C332596   4.199   5.896   3.821
  583DIO     C432597   4.265   5.955   3.702
  583DIO     C532598   4.409   5.968   3.695
  583DIO     F232599   4.464   6.026   3.586
  583DIO     C632600   4.493   5.924   3.804
  583DIO     F332601   4.627   5.935   3.795
  583DIO     C732602   4.053   5.882   3.829
  583DIO     C832603   3.976   5.818   3.720
  583DIO     C932604   3.831   5.805   3.727
  583DIO    C1032605   3.758   5.863   3.839
  583DIO    C1132606   3.831   5.920   3.951
  583DIO    C1232607   3.975   5.930   3.945
  583DIO     F432608   4.040   5.988   4.048
  583DIO     O132609   3.626   5.826   3.851
  583DIO    C1332610   3.532   5.916   3.901
  583DIO     O232611   3.531   6.041   3.914
  583DIO    C1432612   3.403   5.852   3.929
  583DIO    C1532613   3.336   5.764   3.829
  583DIO     F532614   3.399   5.733   3.714
  583DIO    C1632615   3.206   5.705   3.852
  583DIO    C1732616   3.130   5.737   3.972
  583DIO    C1832617   3.199   5.809   4.079
  583DIO    C1932618   3.330   5.866   4.057
  583DIO     F632619   3.393   5.919   4.164
  583DIO    C2032620   2.989   5.686   3.992
  583DIO     O332621   2.919   5.660   3.870
  583DIO    C2132622   2.876   5.779   3.805
  583DIO    C2232623   2.787   5.862   3.897
  583DIO    C2332624   2.868   5.888   4.024
  583DIO     O432625   2.912   5.766   4.082
  583DIO    C2432626   2.654   5.791   3.933
  583DIO    C2532627   2.563   5.756   3.815
  583DIO    C2632628   2.525   5.875   3.729
  583DIO     H132629   4.245   5.810   4.021
  583DIO     H232630   4.204   5.997   3.623
  583DIO     H332631   4.027   5.776   3.634
  583DIO     H432632   3.776   5.751   3.651
  583DIO     H532633   3.777   5.958   4.036
  583DIO     H632634   3.167   5.635   3.779
  583DIO     H732635   3.156   5.816   4.178
  583DIO     H832636   2.999   5.588   4.041
  583DIO     H932637   2.962   5.837   3.773
  583DIO    H1032638   2.823   5.750   3.714
  583DIO    H1132639   2.764   5.958   3.850
  583DIO    H1232640   2.806   5.940   4.099
  583DIO    H1332641   2.954   5.953   4.003
  583DIO    H1432642   2.674   5.699   3.989
  583DIO    H1532643   2.598   5.856   4.001
  583DIO    H1632644   2.611   5.679   3.752
  583DIO    H1732645   2.472   5.710   3.854
  583DIO    H1832646   2.481   5.955   3.789
  583DIO    H1932647   2.611   5.916   3.675
  583DIO    H2032648   2.451   5.845   3.653
  584DIO     F132649   2.644   3.385   5.593
  584DIO     C132650   2.566   3.376   5.483
  584DIO     C232651   2.422   3.369   5.498
  584DIO     C332652   2.333   3.357   5.380
  584DIO     C432653   2.399   3.355   5.248
  584DIO     C532654   2.543   3.362   5.235
  584DIO     F232655   2.599   3.364   5.112
  584DIO     C632656   2.627   3.373   5.352
  584DIO     F332657   2.761   3.379   5.339
  584DIO     C732658   2.187   3.348   5.394
  584DIO     C832659   2.110   3.241   5.326
  584DIO     C932660   1.965   3.233   5.339
  584DIO    C1032661   1.893   3.336   5.411
  584DIO    C1132662   1.965   3.438   5.485
  584DIO    C1232663   2.109   3.444   5.474
  584DIO     F432664   2.174   3.543   5.540
  584DIO     O132665   1.760   3.309   5.439
  584DIO    C1332666   1.666   3.411   5.442
  584DIO     O232667   1.665   3.528   5.396
  584DIO    C1432668   1.537   3.367   5.496
  584DIO    C1532669   1.471   3.243   5.448
  584DIO     F532670   1.533   3.163   5.360
  584DIO    C1632671   1.340   3.202   5.495
  584DIO    C1732672   1.264   3.285   5.588
  584DIO    C1832673   1.333   3.398   5.649
  584DIO    C1932674   1.464   3.439   5.603
  584DIO     F632675   1.527   3.535   5.674
  584DIO    C2032676   1.123   3.249   5.629
  584DIO     O332677   1.054   3.170   5.532
  584DIO    C2132678   1.010   3.246   5.420
  584DIO    C2232679   0.921   3.361   5.464
  584DIO    C2332680   1.002   3.443   5.565
  584DIO     O432681   1.046   3.361   5.672
  584DIO    C2432682   0.788   3.315   5.528
  584DIO    C2532683   0.698   3.229   5.439
  584DIO    C2632684   0.659   3.296   5.308
  584DIO     H132685   2.380   3.373   5.598
  584DIO     H232686   2.338   3.356   5.157
  584DIO     H332687   2.161   3.165   5.270
  584DIO     H432688   1.910   3.150   5.296
  584DIO     H532689   1.911   3.511   5.543
  584DIO     H632690   1.302   3.106   5.463
  584DIO     H732691   1.290   3.450   5.734
  584DIO     H832692   1.133   3.185   5.717
  584DIO     H932693   1.097   3.282   5.364
  584DIO    H1032694   0.957   3.178   5.352
  584DIO    H1132695   0.898   3.425   5.377
  584DIO    H1232696   0.941   3.524   5.607
  584DIO    H1332697   1.088   3.491   5.516
  584DIO    H1432698   0.808   3.259   5.620
  584DIO    H1532699   0.732   3.404   5.558
  584DIO    H1632700   0.745   3.133   5.419
  584DIO    H1732701   0.606   3.207   5.495
  584DIO    H1832702   0.615   3.395   5.325
  584DIO    H1932703   0.746   3.307   5.242
  584DIO    H2032704   0.585   3.235   5.255
  585DIO     F132705   3.184   7.922   7.338
  585DIO     C132706   3.106   7.899   7.446
  585DIO     C232707   2.962   7.911   7.433
  585DIO     C332708   2.873   7.889   7.550
  585DIO     C432709   2.939   7.853   7.678
  585DIO     C532710   3.083   7.842   7.687
  585DIO     F232711   3.138   7.805   7.805
  585DIO     C632712   3.167   7.865   7.572
  585DIO     F332713   3.300   7.855   7.583
  585DIO     C732714   2.727   7.901   7.539
  585DIO     C832715   2.650   7.984   7.635
  585DIO     C932716   2.505   7.995   7.625
  585DIO    C1032717   2.432   7.918   7.526
  585DIO    C1132718   2.505   7.841   7.426
  585DIO    C1232719   2.649   7.832   7.435
  585DIO     F432720   2.714   7.756   7.344
  585DIO     O132721   2.300   7.952   7.507
  585DIO    C1332722   2.206   7.855   7.475
  585DIO     O232723   2.205   7.729   7.486
  585DIO    C1432724   2.076   7.912   7.436
  585DIO    C1532725   2.010   8.017   7.517
  585DIO     F532726   2.073   8.069   7.625
  585DIO    C1632727   1.879   8.070   7.484
  585DIO    C1732728   1.804   8.017   7.371
  585DIO    C1832729   1.872   7.926   7.280
  585DIO    C1932730   2.004   7.874   7.313
  585DIO     F632731   2.066   7.802   7.217
  585DIO    C2032732   1.663   8.063   7.342
  585DIO     O332733   1.593   8.112   7.458
  585DIO    C2132734   1.549   8.007   7.544
  585DIO    C2232735   1.461   7.908   7.468
  585DIO    C2332736   1.541   7.859   7.348
  585DIO     O432737   1.586   7.968   7.269
  585DIO    C2432738   1.328   7.971   7.420
  585DIO    C2532739   1.237   8.028   7.530
  585DIO    C2632740   1.199   7.926   7.637
  585DIO     H132741   2.919   7.936   7.337
  585DIO     H232742   2.878   7.826   7.764
  585DIO     H332743   2.701   8.041   7.711
  585DIO     H432744   2.450   8.062   7.690
  585DIO     H532745   2.450   7.788   7.350
  585DIO     H632746   1.841   8.153   7.542
  585DIO     H732747   1.829   7.900   7.184
  585DIO     H832748   1.673   8.150   7.276
  585DIO     H932749   1.636   7.955   7.586
  585DIO    H1032750   1.497   8.052   7.628
  585DIO    H1132751   1.438   7.823   7.533
  585DIO    H1232752   1.480   7.794   7.285
  585DIO    H1332753   1.627   7.799   7.381
  585DIO    H1432754   1.348   8.051   7.348
  585DIO    H1532755   1.271   7.894   7.366
  585DIO    H1632756   1.284   8.114   7.577
  585DIO    H1732757   1.145   8.065   7.483
  585DIO    H1832758   1.155   7.837   7.592
  585DIO    H1932759   1.285   7.897   7.697
  585DIO    H2032760   1.125   7.970   7.705
  586DIO     F132761   6.807   1.842   8.478
  586DIO     C132762   6.729   1.785   8.384
  586DIO     C232763   6.585   1.785   8.401
  586DIO     C332764   6.496   1.721   8.301
  586DIO     C432765   6.562   1.660   8.183
  586DIO     C532766   6.706   1.661   8.169
  586DIO     F232767   6.761   1.607   8.058
  586DIO     C632768   6.790   1.723   8.268
  586DIO     F332769   6.923   1.723   8.254
  586DIO     C732770   6.350   1.719   8.317
  586DIO     C832771   6.273   1.594   8.304
  586DIO     C932772   6.128   1.592   8.319
  586DIO    C1032773   6.055   1.716   8.338
  586DIO    C1132774   6.128   1.841   8.358
  586DIO    C1232775   6.272   1.842   8.345
  586DIO     F432776   6.337   1.959   8.360
  586DIO     O132777   5.923   1.705   8.375
  586DIO    C1332778   5.829   1.798   8.332
  586DIO     O232779   5.828   1.881   8.238
  586DIO    C1432780   5.700   1.782   8.400
  586DIO    C1532781   5.633   1.651   8.413
  586DIO     F532782   5.696   1.539   8.370
  586DIO    C1632783   5.502   1.634   8.473
  586DIO    C1732784   5.427   1.751   8.518
  586DIO    C1832785   5.495   1.879   8.522
  586DIO    C1932786   5.627   1.895   8.463
  586DIO     F632787   5.690   2.013   8.483
  586DIO    C2032788   5.286   1.737   8.571
  586DIO     O332789   5.216   1.622   8.521
  586DIO    C2132790   5.173   1.640   8.386
  586DIO    C2232791   5.084   1.763   8.373
  586DIO    C2332792   5.164   1.881   8.427
  586DIO     O432793   5.209   1.857   8.560
  586DIO    C2432794   4.951   1.750   8.451
  586DIO    C2532795   4.860   1.634   8.411
  586DIO    C2632796   4.822   1.634   8.263
  586DIO     H132797   6.542   1.833   8.488
  586DIO     H232798   6.501   1.620   8.102
  586DIO     H332799   6.324   1.500   8.288
  586DIO     H432800   6.073   1.499   8.318
  586DIO     H532801   6.073   1.932   8.377
  586DIO     H632802   5.464   1.534   8.488
  586DIO     H732803   5.453   1.964   8.575
  586DIO     H832804   5.296   1.719   8.679
  586DIO     H932805   5.259   1.648   8.320
  586DIO    H1032806   5.120   1.549   8.356
  586DIO    H1132807   5.061   1.781   8.268
  586DIO    H1232808   5.103   1.972   8.428
  586DIO    H1332809   5.251   1.902   8.362
  586DIO    H1432810   4.971   1.742   8.559
  586DIO    H1532811   4.894   1.844   8.438
  586DIO    H1632812   4.908   1.538   8.436
  586DIO    H1732813   4.768   1.639   8.471
  586DIO    H1832814   4.778   1.730   8.234
  586DIO    H1932815   4.908   1.615   8.199
  586DIO    H2032816   4.748   1.556   8.244
  587DIO     F132817   9.955   7.381   9.035
  587DIO     C132818   9.877   7.427   8.935
  587DIO     C232819   9.733   7.413   8.944
  587DIO     C332820   9.644   7.461   8.836
  587DIO     C432821   9.710   7.525   8.719
  587DIO     C532822   9.854   7.537   8.712
  587DIO     F232823   9.910   7.600   8.607
  587DIO     C632824   9.938   7.489   8.820
  587DIO     F332825  10.072   7.501   8.811
  587DIO     C732826   9.498   7.446   8.843
  587DIO     C832827   9.421   7.387   8.732
  587DIO     C932828   9.276   7.374   8.739
  587DIO    C1032829   9.204   7.428   8.852
  587DIO    C1132830   9.276   7.479   8.967
  587DIO    C1232831   9.420   7.491   8.961
  587DIO     F432832   9.485   7.544   9.066
  587DIO     O132833   9.071   7.390   8.863
  587DIO    C1332834   8.977   7.477   8.917
  587DIO     O232835   8.976   7.602   8.934
  587DIO    C1432836   8.848   7.412   8.942
  587DIO    C1532837   8.781   7.329   8.839
  587DIO     F532838   8.844   7.302   8.722
  587DIO    C1632839   8.651   7.269   8.859
  587DIO    C1732840   8.575   7.296   8.981
  587DIO    C1832841   8.644   7.364   9.090
  587DIO    C1932842   8.775   7.422   9.070
  587DIO     F632843   8.838   7.471   9.180
  587DIO    C2032844   8.434   7.244   8.999
  587DIO     O332845   8.364   7.223   8.875
  587DIO    C2132846   8.321   7.345   8.815
  587DIO    C2232847   8.232   7.424   8.911
  587DIO    C2332848   8.313   7.445   9.039
  587DIO     O432849   8.357   7.321   9.092
  587DIO    C2432850   8.099   7.352   8.944
  587DIO    C2532851   8.008   7.321   8.824
  587DIO    C2632852   7.970   7.444   8.743
  587DIO     H132853   9.691   7.367   9.033
  587DIO     H232854   9.649   7.570   8.642
  587DIO     H332855   9.472   7.349   8.645
  587DIO     H432856   9.221   7.323   8.661
  587DIO     H532857   9.222   7.514   9.054
  587DIO     H632858   8.613   7.202   8.784
  587DIO     H732859   8.601   7.367   9.190
  587DIO     H832860   8.444   7.145   9.044
  587DIO     H932861   8.407   7.404   8.785
  587DIO    H1032862   8.268   7.319   8.723
  587DIO    H1132863   8.209   7.522   8.867
  587DIO    H1232864   8.252   7.494   9.115
  587DIO    H1332865   8.399   7.510   9.020
  587DIO    H1432866   8.119   7.258   8.996
  587DIO    H1532867   8.043   7.414   9.014
  587DIO    H1632868   8.056   7.247   8.758
  587DIO    H1732869   7.917   7.274   8.862
  587DIO    H1832870   7.926   7.521   8.806
  587DIO    H1932871   8.057   7.486   8.691
  587DIO    H2032872   7.896   7.417   8.667
  588DIO     F132873   4.410   9.009   7.417
  588DIO     C132874   4.332   9.071   7.326
  588DIO     C232875   4.188   9.056   7.333
  588DIO     C332876   4.099   9.121   7.234
  588DIO     C432877   4.165   9.203   7.130
  588DIO     C532878   4.309   9.217   7.125
  588DIO     F232879   4.364   9.297   7.031
  588DIO     C632880   4.393   9.152   7.223
  588DIO     F332881   4.526   9.165   7.217
  588DIO     C732882   3.953   9.106   7.239
  588DIO     C832883   3.876   9.066   7.119
  588DIO     C932884   3.731   9.052   7.124
  588DIO    C1032885   3.658   9.086   7.245
  588DIO    C1132886   3.731   9.117   7.366
  588DIO    C1232887   3.875   9.129   7.362
  588DIO     F432888   3.940   9.164   7.475
  588DIO     O132889   3.526   9.047   7.249
  588DIO    C1332890   3.432   9.124   7.317
  588DIO     O232891   3.431   9.244   7.355
  588DIO    C1432892   3.303   9.056   7.330
  588DIO    C1532893   3.236   8.990   7.215
  588DIO     F532894   3.299   8.984   7.096
  588DIO    C1632895   3.105   8.928   7.225
  588DIO    C1732896   3.030   8.934   7.350
  588DIO    C1832897   3.098   8.983   7.469
  588DIO    C1932898   3.230   9.044   7.459
  588DIO     F632899   3.293   9.073   7.575
  588DIO    C2032900   2.889   8.880   7.358
  588DIO     O332901   2.819   8.880   7.233
  588DIO    C2132902   2.776   9.010   7.195
  588DIO    C2232903   2.687   9.072   7.302
  588DIO    C2332904   2.767   9.071   7.432
  588DIO     O432905   2.812   8.940   7.463
  588DIO    C2432906   2.554   8.996   7.322
  588DIO    C2532907   2.463   8.985   7.199
  588DIO    C2632908   2.425   9.120   7.140
  588DIO     H132909   4.145   8.996   7.413
  588DIO     H232910   4.104   9.261   7.061
  588DIO     H332911   3.927   9.042   7.027
  588DIO     H432912   3.676   9.015   7.038
  588DIO     H532913   3.676   9.137   7.458
  588DIO     H632914   3.067   8.874   7.139
  588DIO     H732915   3.056   8.970   7.567
  588DIO     H832916   2.899   8.775   7.386
  588DIO     H932917   2.862   9.074   7.175
  588DIO    H1032918   2.723   9.000   7.099
  588DIO    H1132919   2.664   9.176   7.275
  588DIO    H1232920   2.706   9.107   7.515
  588DIO    H1332921   2.854   9.139   7.424
  588DIO    H1432922   2.574   8.894   7.358
  588DIO    H1532923   2.497   9.045   7.402
  588DIO    H1632924   2.511   8.923   7.122
  588DIO    H1732925   2.371   8.933   7.228
  588DIO    H1832926   2.381   9.186   7.215
  588DIO    H1932927   2.511   9.170   7.096
  588DIO    H2032928   2.351   9.106   7.060
  589DIO     F132929   4.390   2.196   0.815
  589DIO     C132930   4.312   2.153   0.916
  589DIO     C232931   4.168   2.166   0.906
  589DIO     C332932   4.079   2.122   1.016
  589DIO     C432933   4.145   2.062   1.134
  589DIO     C532934   4.289   2.049   1.142
  589DIO     F232935   4.344   1.990   1.250
  589DIO     C632936   4.373   2.094   1.033
  589DIO     F332937   4.507   2.083   1.042
  589DIO     C732938   3.933   2.136   1.008
  589DIO     C832939   3.856   2.198   1.118
  589DIO     C932940   3.711   2.212   1.111
  589DIO    C1032941   3.638   2.155   0.999
  589DIO    C1132942   3.711   2.100   0.886
  589DIO    C1232943   3.855   2.089   0.892
  589DIO     F432944   3.920   2.032   0.788
  589DIO     O132945   3.506   2.192   0.987
  589DIO    C1332946   3.412   2.103   0.936
  589DIO     O232947   3.411   1.978   0.922
  589DIO    C1432948   3.283   2.167   0.909
  589DIO    C1532949   3.216   2.254   1.009
  589DIO     F532950   3.279   2.284   1.125
  589DIO    C1632951   3.086   2.313   0.987
  589DIO    C1732952   3.010   2.282   0.866
  589DIO    C1832953   3.079   2.211   0.759
  589DIO    C1932954   3.210   2.154   0.781
  589DIO     F632955   3.273   2.102   0.673
  589DIO    C2032956   2.869   2.334   0.847
  589DIO     O332957   2.799   2.358   0.970
  589DIO    C2132958   2.756   2.239   1.033
  589DIO    C2232959   2.667   2.157   0.940
  589DIO    C2332960   2.748   2.132   0.813
  589DIO     O432961   2.792   2.255   0.756
  589DIO    C2432962   2.534   2.228   0.905
  589DIO    C2532963   2.443   2.262   1.024
  589DIO    C2632964   2.405   2.142   1.109
  589DIO     H132965   4.125   2.210   0.817
  589DIO     H232966   4.084   2.019   1.213
  589DIO     H332967   3.907   2.240   1.204
  589DIO     H432968   3.656   2.265   1.187
  589DIO     H532969   3.657   2.062   0.800
  589DIO     H632970   3.047   2.383   1.061
  589DIO     H732971   3.036   2.205   0.660
  589DIO     H832972   2.879   2.432   0.799
  589DIO     H932973   2.842   2.180   1.065
  589DIO    H1032974   2.703   2.267   1.125
  589DIO    H1132975   2.644   2.060   0.987
  589DIO    H1232976   2.686   2.081   0.738
  589DIO    H1332977   2.834   2.067   0.833
  589DIO    H1432978   2.554   2.320   0.850
  589DIO    H1532979   2.478   2.163   0.837
  589DIO    H1632980   2.491   2.338   1.087
  589DIO    H1732981   2.352   2.308   0.985
  589DIO    H1832982   2.361   2.062   1.047
  589DIO    H1932983   2.491   2.101   1.162
  589DIO    H2032984   2.331   2.171   1.184
  590DIO     F132985   2.965   9.227   9.229
  590DIO     C132986   2.888   9.210   9.338
  590DIO     C232987   2.744   9.221   9.325
  590DIO     C332988   2.655   9.205   9.442
  590DIO     C432989   2.720   9.176   9.572
  590DIO     C532990   2.865   9.166   9.582
  590DIO     F232991   2.920   9.135   9.701
  590DIO     C632992   2.948   9.182   9.466
  590DIO     F332993   3.082   9.174   9.477
  590DIO     C732994   2.508   9.217   9.431
  590DIO     C832995   2.431   9.305   9.522
  590DIO     C932996   2.287   9.316   9.512
  590DIO    C1032997   2.214   9.233   9.417
  590DIO    C1132998   2.287   9.151   9.322
  590DIO    C1232999   2.431   9.142   9.330
  590DIO     F433000   2.496   9.061   9.244
  590DIO     O133001   2.082   9.265   9.396
  590DIO    C1333002   1.987   9.167   9.369
  590DIO     O233003   1.986   9.042   9.387
  590DIO    C1433004   1.858   9.222   9.327
  590DIO    C1533005   1.792   9.331   9.403
  590DIO     F533006   1.855   9.389   9.507
  590DIO    C1633007   1.661   9.383   9.367
  590DIO    C1733008   1.585   9.323   9.257
  590DIO    C1833009   1.654   9.228   9.171
  590DIO    C1933010   1.786   9.177   9.206
  590DIO     F633011   1.848   9.100   9.115
  590DIO    C2033012   1.445   9.368   9.226
  590DIO     O333013   1.375   9.423   9.338
  590DIO    C2133014   1.331   9.323   9.430
  590DIO    C2233015   1.242   9.220   9.360
  590DIO    C2333016   1.323   9.164   9.243
  590DIO     O433017   1.367   9.269   9.157
  590DIO    C2433018   1.110   9.280   9.309
  590DIO    C2533019   1.019   9.343   9.415
  590DIO    C2633020   0.980   9.247   9.527
  590DIO     H133021   2.701   9.241   9.227
  590DIO     H233022   2.660   9.154   9.659
  590DIO     H333023   2.483   9.366   9.595
  590DIO     H433024   2.232   9.386   9.572
  590DIO     H533025   2.232   9.093   9.248
  590DIO     H633026   1.623   9.469   9.421
  590DIO     H733027   1.611   9.197   9.077
  590DIO     H833028   1.454   9.451   9.155
  590DIO     H933029   1.418   9.274   9.475
  590DIO    H1033030   1.278   9.372   9.511
  590DIO    H1133031   1.220   9.138   9.429
  590DIO    H1233032   1.262   9.096   9.183
  590DIO    H1333033   1.409   9.106   9.279
  590DIO    H1433034   1.129   9.356   9.232
  590DIO    H1533035   1.053   9.200   9.258
  590DIO    H1633036   1.066   9.432   9.457
  590DIO    H1733037   0.927   9.377   9.366
  590DIO    H1833038   0.937   9.155   9.487
  590DIO    H1933039   1.067   9.221   9.589
  590DIO    H2033040   0.907   9.295   9.593
  591DIO     F133041   3.979   0.341   1.650
  591DIO     C133042   3.901   0.275   1.562
  591DIO     C233043   3.757   0.277   1.579
  591DIO     C333044   3.668   0.203   1.486
  591DIO     C433045   3.734   0.131   1.375
  591DIO     C533046   3.878   0.130   1.360
  591DIO     F233047   3.933   0.066   1.255
  591DIO     C633048   3.962   0.202   1.453
  591DIO     F333049   4.095   0.200   1.439
  591DIO     C733050   3.522   0.203   1.502
  591DIO     C833051   3.445   0.077   1.501
  591DIO     C933052   3.300   0.076   1.517
  591DIO    C1033053   3.227   0.202   1.523
  591DIO    C1133054   3.300   0.328   1.531
  591DIO    C1233055   3.444   0.327   1.518
  591DIO     F433056   3.509   0.446   1.521
  591DIO     O133057   3.095   0.194   1.561
  591DIO    C1333058   3.001   0.282   1.509
  591DIO     O233059   3.000   0.357   1.407
  591DIO    C1433060   2.872   0.274   1.578
  591DIO    C1533061   2.805   0.144   1.604
  591DIO     F533062   2.868   0.029   1.572
  591DIO    C1633063   2.674   0.134   1.666
  591DIO    C1733064   2.599   0.254   1.699
  591DIO    C1833065   2.667   0.382   1.691
  591DIO    C1933066   2.799   0.392   1.630
  591DIO     F633067   2.862   0.511   1.639
  591DIO    C2033068   2.458   0.245   1.753
  591DIO     O333069   2.388   0.126   1.714
  591DIO    C2133070   2.345   0.130   1.579
  591DIO    C2233071   2.256   0.252   1.554
  591DIO    C2333072   2.336   0.375   1.595
  591DIO     O433073   2.381   0.363   1.730
  591DIO    C2433074   2.123   0.247   1.633
  591DIO    C2533075   2.032   0.127   1.603
  591DIO    C2633076   1.994   0.113   1.457
  591DIO     H133077   3.714   0.333   1.661
  591DIO     H233078   3.673   0.083   1.298
  591DIO     H333079   3.496  -0.018   1.495
  591DIO     H433080   3.245  -0.016   1.525
  591DIO     H533081   3.245   0.420   1.541
  591DIO     H633082   2.636   0.035   1.690
  591DIO     H733083   2.625   0.471   1.735
  591DIO     H833084   2.468   0.238   1.862
  591DIO     H933085   2.431   0.132   1.512
  591DIO    H1033086   2.292   0.037   1.558
  591DIO    H1133087   2.233   0.259   1.447
  591DIO    H1233088   2.275   0.465   1.588
  591DIO    H1333089   2.423   0.389   1.529
  591DIO    H1433090   2.143   0.249   1.740
  591DIO    H1533091   2.066   0.339   1.611
  591DIO    H1633092   2.080   0.034   1.638
  591DIO    H1733093   1.940   0.138   1.663
  591DIO    H1833094   1.950   0.206   1.419
  591DIO    H1933095   2.080   0.087   1.395
  591DIO    H2033096   1.920   0.033   1.445
  592DIO     F133097   8.853   1.558   9.662
  592DIO     C133098   8.775   1.497   9.753
  592DIO     C233099   8.631   1.512   9.746
  592DIO     C333100   8.542   1.448   9.845
  592DIO     C433101   8.608   1.366   9.950
  592DIO     C533102   8.752   1.353   9.955
  592DIO     F233103   8.807   1.274  10.050
  592DIO     C633104   8.836   1.417   9.857
  592DIO     F333105   8.969   1.405   9.863
  592DIO     C733106   8.396   1.463   9.840
  592DIO     C833107   8.319   1.504   9.960
  592DIO     C933108   8.174   1.518   9.955
  592DIO    C1033109   8.101   1.483   9.834
  592DIO    C1133110   8.174   1.450   9.713
  592DIO    C1233111   8.318   1.439   9.717
  592DIO     F433112   8.383   1.403   9.604
  592DIO     O133113   7.969   1.522   9.829
  592DIO    C1333114   7.875   1.444   9.763
  592DIO     O233115   7.874   1.324   9.726
  592DIO    C1433116   7.746   1.513   9.749
  592DIO    C1533117   7.679   1.579   9.863
  592DIO     F533118   7.742   1.586   9.982
  592DIO    C1633119   7.548   1.641   9.853
  592DIO    C1733120   7.473   1.634   9.728
  592DIO    C1833121   7.541   1.584   9.610
  592DIO    C1933122   7.673   1.523   9.620
  592DIO     F633123   7.736   1.493   9.504
  592DIO    C2033124   7.332   1.688   9.719
  592DIO     O333125   7.262   1.689   9.844
  592DIO    C2133126   7.219   1.560   9.884
  592DIO    C2233127   7.130   1.497   9.777
  592DIO    C2333128   7.210   1.496   9.647
  592DIO     O433129   7.255   1.627   9.615
  592DIO    C2433130   6.997   1.573   9.756
  592DIO    C2533131   6.906   1.584   9.879
  592DIO    C2633132   6.868   1.450   9.940
  592DIO     H133133   8.588   1.572   9.666
  592DIO     H233134   8.547   1.309  10.020
  592DIO     H333135   8.370   1.528  10.052
  592DIO     H433136   8.119   1.556  10.040
  592DIO     H533137   8.119   1.430   9.622
  592DIO     H633138   7.510   1.696   9.938
  592DIO     H733139   7.499   1.596   9.511
  592DIO     H833140   7.342   1.793   9.690
  592DIO     H933141   7.305   1.496   9.904
  592DIO    H1033142   7.166   1.570   9.979
  592DIO    H1133143   7.107   1.393   9.805
  592DIO    H1233144   7.149   1.460   9.564
  592DIO    H1333145   7.297   1.428   9.655
  592DIO    H1433146   7.017   1.674   9.719
  592DIO    H1533147   6.940   1.522   9.677
  592DIO    H1633148   6.954   1.647   9.956
  592DIO    H1733149   6.814   1.636   9.849
  592DIO    H1833150   6.824   1.384   9.865
  592DIO    H1933151   6.954   1.400   9.984
  592DIO    H2033152   6.794   1.465  10.019
  593DIO     F133153   6.735   6.927   9.364
  593DIO     C133154   6.658   7.002   9.445
  593DIO     C233155   6.513   6.998   9.429
  593DIO     C333156   6.425   7.080   9.514
  593DIO     C433157   6.490   7.163   9.618
  593DIO     C533158   6.634   7.165   9.632
  593DIO     F233159   6.690   7.239   9.730
  593DIO     C633160   6.718   7.084   9.547
  593DIO     F333161   6.852   7.088   9.561
  593DIO     C733162   6.278   7.079   9.498
  593DIO     C833163   6.201   7.205   9.486
  593DIO     C933164   6.056   7.203   9.471
  593DIO    C1033165   5.984   7.078   9.477
  593DIO    C1133166   6.056   6.952   9.481
  593DIO    C1233167   6.200   6.953   9.494
  593DIO     F433168   6.265   6.836   9.502
  593DIO     O133169   5.852   7.082   9.438
  593DIO    C1333170   5.757   6.999   9.499
  593DIO     O233171   5.756   6.935   9.607
  593DIO    C1433172   5.628   7.001   9.429
  593DIO    C1533173   5.562   7.128   9.391
  593DIO     F533174   5.624   7.246   9.411
  593DIO    C1633175   5.431   7.132   9.328
  593DIO    C1733176   5.355   7.009   9.306
  593DIO    C1833177   5.424   6.882   9.327
  593DIO    C1933178   5.556   6.879   9.389
  593DIO     F633179   5.618   6.759   9.391
  593DIO    C2033180   5.214   7.013   9.252
  593DIO     O333181   5.145   7.135   9.279
  593DIO    C2133182   5.101   7.144   9.415
  593DIO    C2233183   5.012   7.025   9.451
  593DIO    C2333184   5.093   6.899   9.422
  593DIO     O433185   5.137   6.897   9.286
  593DIO    C2433186   4.879   7.022   9.372
  593DIO    C2533187   4.789   7.145   9.390
  593DIO    C2633188   4.750   7.173   9.534
  593DIO     H133189   6.471   6.934   9.352
  593DIO     H233190   6.430   7.218   9.689
  593DIO     H333191   6.253   7.300   9.484
  593DIO     H433192   6.001   7.295   9.454
  593DIO     H533193   6.002   6.859   9.480
  593DIO     H633194   5.393   7.228   9.295
  593DIO     H733195   5.381   6.789   9.292
  593DIO     H833196   5.224   7.009   9.143
  593DIO     H933197   5.188   7.149   9.481
  593DIO    H1033198   5.048   7.239   9.427
  593DIO    H1133199   4.990   7.028   9.558
  593DIO    H1233200   5.032   6.809   9.438
  593DIO    H1333201   5.179   6.891   9.489
  593DIO    H1433202   4.899   7.010   9.265
  593DIO    H1533203   4.823   6.933   9.403
  593DIO    H1633204   4.836   7.234   9.346
  593DIO    H1733205   4.697   7.128   9.332
  593DIO    H1833206   4.706   7.084   9.581
  593DIO    H1933207   4.837   7.204   9.593
  593DIO    H2033208   4.677   7.254   9.538
  594DIO     F133209   3.228   0.897   7.032
  594DIO     C133210   3.150   0.989   7.092
  594DIO     C233211   3.006   0.982   7.077
  594DIO     C333212   2.917   1.082   7.139
  594DIO     C433213   2.983   1.188   7.220
  594DIO     C533214   3.127   1.193   7.233
  594DIO     F233215   3.183   1.289   7.311
  594DIO     C633216   3.211   1.094   7.170
  594DIO     F333217   3.345   1.101   7.183
  594DIO     C733218   2.771   1.077   7.124
  594DIO     C833219   2.694   1.196   7.082
  594DIO     C933220   2.549   1.191   7.068
  594DIO    C1033221   2.477   1.071   7.104
  594DIO    C1133222   2.549   0.950   7.139
  594DIO    C1233223   2.693   0.954   7.151
  594DIO     F433224   2.758   0.842   7.188
  594DIO     O133225   2.344   1.065   7.066
  594DIO    C1333226   2.250   1.000   7.144
  594DIO     O233227   2.249   0.964   7.265
  594DIO    C1433228   2.121   0.985   7.076
  594DIO    C1533229   2.055   1.098   7.008
  594DIO     F533230   2.117   1.217   6.999
  594DIO    C1633231   1.924   1.087   6.947
  594DIO    C1733232   1.848   0.963   6.956
  594DIO    C1833233   1.917   0.845   7.007
  594DIO    C1933234   2.048   0.856   7.067
  594DIO     F633235   2.111   0.740   7.099
  594DIO    C2033236   1.707   0.952   6.902
  594DIO     O333237   1.638   1.078   6.899
  594DIO    C2133238   1.594   1.119   7.028
  594DIO    C2233239   1.505   1.013   7.092
  594DIO    C2333240   1.586   0.884   7.094
  594DIO     O433241   1.630   0.849   6.964
  594DIO    C2433242   1.372   0.991   7.016
  594DIO    C2533243   1.282   1.114   7.003
  594DIO    C2633244   1.243   1.177   7.136
  594DIO     H133245   2.964   0.901   7.018
  594DIO     H233246   2.922   1.258   7.276
  594DIO     H333247   2.745   1.287   7.056
  594DIO     H433248   2.494   1.275   7.029
  594DIO     H533249   2.495   0.859   7.161
  594DIO     H633250   1.886   1.172   6.891
  594DIO     H733251   1.874   0.746   6.996
  594DIO     H833252   1.717   0.923   6.797
  594DIO     H933253   1.681   1.140   7.091
  594DIO    H1033254   1.541   1.214   7.016
  594DIO    H1133255   1.482   1.043   7.195
  594DIO    H1233256   1.525   0.801   7.132
  594DIO    H1333257   1.672   0.892   7.162
  594DIO    H1433258   1.392   0.953   6.915
  594DIO    H1533259   1.316   0.913   7.068
  594DIO    H1633260   1.329   1.190   6.940
  594DIO    H1733261   1.190   1.084   6.951
  594DIO    H1833262   1.199   1.102   7.204
  594DIO    H1933263   1.330   1.222   7.186
  594DIO    H2033264   1.169   1.256   7.121
  595DIO     F133265   5.194   5.094   3.341
  595DIO     C133266   5.117   5.082   3.232
  595DIO     C233267   4.973   5.075   3.248
  595DIO     C333268   4.884   5.059   3.130
  595DIO     C433269   4.949   5.054   2.997
  595DIO     C533270   5.094   5.061   2.985
  595DIO     F233271   5.149   5.060   2.862
  595DIO     C633272   5.177   5.076   3.101
  595DIO     F333273   5.311   5.081   3.088
  595DIO     C733274   4.737   5.051   3.144
  595DIO     C833275   4.660   4.943   3.079
  595DIO     C933276   4.516   4.935   3.092
  595DIO    C1033277   4.443   5.040   3.161
  595DIO    C1133278   4.516   5.143   3.233
  595DIO    C1233279   4.660   5.150   3.222
  595DIO     F433280   4.725   5.250   3.284
  595DIO     O133281   4.311   5.013   3.190
  595DIO    C1333282   4.216   5.116   3.191
  595DIO     O233283   4.215   5.231   3.141
  595DIO    C1433284   4.087   5.073   3.246
  595DIO    C1533285   4.021   4.948   3.201
  595DIO     F533286   4.084   4.865   3.115
  595DIO    C1633287   3.890   4.908   3.249
  595DIO    C1733288   3.814   4.994   3.339
  595DIO    C1833289   3.883   5.108   3.398
  595DIO    C1933290   4.015   5.148   3.351
  595DIO     F633291   4.077   5.246   3.419
  595DIO    C2033292   3.674   4.959   3.381
  595DIO     O333293   3.604   4.877   3.287
  595DIO    C2133294   3.560   4.950   3.173
  595DIO    C2233295   3.471   5.067   3.213
  595DIO    C2333296   3.552   5.151   3.312
  595DIO     O433297   3.596   5.072   3.422
  595DIO    C2433298   3.339   5.022   3.279
  595DIO    C2533299   3.248   4.934   3.192
  595DIO    C2633300   3.209   4.997   3.059
  595DIO     H133301   4.930   5.081   3.347
  595DIO     H233302   4.889   5.053   2.907
  595DIO     H333303   4.712   4.865   3.025
  595DIO     H433304   4.461   4.851   3.051
  595DIO     H533305   4.461   5.218   3.289
  595DIO     H633306   3.852   4.811   3.219
  595DIO     H733307   3.840   5.163   3.481
  595DIO     H833308   3.683   4.897   3.471
  595DIO     H933309   3.647   4.985   3.116
  595DIO    H1033310   3.507   4.880   3.107
  595DIO    H1133311   3.449   5.128   3.125
  595DIO    H1233312   3.491   5.233   3.352
  595DIO    H1333313   3.638   5.197   3.262
  595DIO    H1433314   3.358   4.968   3.372
  595DIO    H1533315   3.282   5.112   3.307
  595DIO    H1633316   3.295   4.837   3.174
  595DIO    H1733317   3.156   4.913   3.249
  595DIO    H1833318   3.166   5.096   3.074
  595DIO    H1933319   3.296   5.006   2.993
  595DIO    H2033320   3.136   4.934   3.008
  596DIO     F133321   5.649   6.201   0.410
  596DIO     C133322   5.571   6.290   0.344
  596DIO     C233323   5.427   6.273   0.346
  596DIO     C333324   5.338   6.366   0.273
  596DIO     C433325   5.404   6.478   0.201
  596DIO     C533326   5.548   6.493   0.201
  596DIO     F233327   5.603   6.598   0.138
  596DIO     C633328   5.632   6.399   0.272
  596DIO     F333329   5.765   6.413   0.270
  596DIO     C733330   5.192   6.350   0.273
  596DIO     C833331   5.115   6.352   0.146
  596DIO     C933332   4.970   6.336   0.146
  596DIO    C1033333   4.897   6.329   0.272
  596DIO    C1133334   4.970   6.320   0.397
  596DIO    C1233335   5.114   6.333   0.397
  596DIO     F433336   5.179   6.329   0.515
  596DIO     O133337   4.765   6.291   0.263
  596DIO    C1333338   4.671   6.342   0.352
  596DIO     O233339   4.670   6.443   0.427
  596DIO    C1433340   4.542   6.273   0.343
  596DIO    C1533341   4.475   6.249   0.213
  596DIO     F533342   4.538   6.281   0.098
  596DIO    C1633343   4.344   6.187   0.202
  596DIO    C1733344   4.269   6.152   0.322
  596DIO    C1833345   4.337   6.160   0.450
  596DIO    C1933346   4.469   6.221   0.461
  596DIO     F633347   4.532   6.211   0.580
  596DIO    C2033348   4.128   6.098   0.313
  596DIO     O333349   4.058   6.139   0.194
  596DIO    C2133350   4.015   6.274   0.200
  596DIO    C2233351   3.926   6.298   0.321
  596DIO    C2333352   4.006   6.256   0.444
  596DIO     O433353   4.051   6.121   0.431
  596DIO    C2433354   3.793   6.219   0.316
  596DIO    C2533355   3.702   6.249   0.196
  596DIO    C2633356   3.664   6.396   0.183
  596DIO     H133357   5.384   6.190   0.401
  596DIO     H233358   5.343   6.555   0.155
  596DIO     H333359   5.166   6.359   0.052
  596DIO     H433360   4.915   6.329   0.053
  596DIO     H533361   4.915   6.309   0.490
  596DIO     H633362   4.306   6.164   0.103
  596DIO     H733363   4.295   6.115   0.539
  596DIO     H833364   4.138   5.989   0.305
  596DIO     H933365   4.101   6.341   0.202
  596DIO    H1033366   3.962   6.296   0.106
  596DIO    H1133367   3.903   6.405   0.329
  596DIO    H1233368   3.945   6.262   0.534
  596DIO    H1333369   4.093   6.322   0.459
  596DIO    H1433370   3.813   6.111   0.317
  596DIO    H1533371   3.736   6.240   0.407
  596DIO    H1633372   3.750   6.216   0.103
  596DIO    H1733373   3.610   6.190   0.207
  596DIO    H1833374   3.620   6.434   0.276
  596DIO    H1933375   3.750   6.458   0.158
  596DIO    H2033376   3.590   6.408   0.103
  597DIO     F133377   6.796   1.388   2.195
  597DIO     C133378   6.719   1.380   2.305
  597DIO     C233379   6.575   1.390   2.291
  597DIO     C333380   6.486   1.383   2.409
  597DIO     C433381   6.551   1.364   2.541
  597DIO     C533382   6.696   1.354   2.552
  597DIO     F233383   6.751   1.333   2.673
  597DIO     C633384   6.779   1.362   2.435
  597DIO     F333385   6.913   1.354   2.447
  597DIO     C733386   6.339   1.394   2.398
  597DIO     C833387   6.262   1.488   2.481
  597DIO     C933388   6.118   1.498   2.470
  597DIO    C1033389   6.045   1.408   2.383
  597DIO    C1133390   6.117   1.320   2.293
  597DIO    C1233391   6.262   1.311   2.303
  597DIO     F433392   6.326   1.225   2.223
  597DIO     O133393   5.913   1.440   2.359
  597DIO    C1333394   5.818   1.339   2.340
  597DIO     O233395   5.817   1.216   2.367
  597DIO    C1433396   5.689   1.391   2.294
  597DIO    C1533397   5.623   1.506   2.360
  597DIO     F533398   5.685   1.571   2.460
  597DIO    C1633399   5.492   1.554   2.321
  597DIO    C1733400   5.416   1.486   2.216
  597DIO    C1833401   5.485   1.385   2.137
  597DIO    C1933402   5.617   1.337   2.176
  597DIO     F633403   5.679   1.253   2.091
  597DIO    C2033404   5.276   1.529   2.181
  597DIO     O333405   5.206   1.592   2.289
  597DIO    C2133406   5.162   1.499   2.388
  597DIO    C2233407   5.073   1.391   2.326
  597DIO    C2333408   5.154   1.327   2.214
  597DIO     O433409   5.198   1.425   2.120
  597DIO    C2433410   4.940   1.447   2.270
  597DIO    C2533411   4.850   1.518   2.372
  597DIO    C2633412   4.811   1.431   2.491
  597DIO     H133413   6.532   1.402   2.192
  597DIO     H233414   6.491   1.349   2.630
  597DIO     H333415   6.314   1.555   2.549
  597DIO     H433416   6.062   1.573   2.526
  597DIO     H533417   6.063   1.257   2.224
  597DIO     H633418   5.454   1.644   2.368
  597DIO     H733419   5.442   1.347   2.046
  597DIO     H833420   5.285   1.606   2.104
  597DIO     H933421   5.249   1.454   2.437
  597DIO    H1033422   5.109   1.555   2.466
  597DIO    H1133423   5.051   1.315   2.402
  597DIO    H1233424   5.093   1.254   2.159
  597DIO    H1333425   5.240   1.272   2.254
  597DIO    H1433426   4.960   1.517   2.188
  597DIO    H1533427   4.884   1.364   2.226
  597DIO    H1633428   4.897   1.610   2.407
  597DIO    H1733429   4.758   1.549   2.320
  597DIO    H1833430   4.767   1.337   2.458
  597DIO    H1933431   4.898   1.410   2.554
  597DIO    H2033432   4.738   1.484   2.553
  598DIO     F133433   6.316   0.143   6.210
  598DIO     C133434   6.238   0.142   6.320
  598DIO     C233435   6.094   0.151   6.305
  598DIO     C333436   6.005   0.152   6.424
  598DIO     C433437   6.071   0.142   6.556
  598DIO     C533438   6.215   0.133   6.568
  598DIO     F233439   6.270   0.120   6.690
  598DIO     C633440   6.299   0.133   6.450
  598DIO     F333441   6.432   0.126   6.463
  598DIO     C733442   5.859   0.162   6.411
  598DIO     C833443   5.782   0.262   6.489
  598DIO     C933444   5.637   0.271   6.477
  598DIO    C1033445   5.564   0.176   6.395
  598DIO    C1133446   5.637   0.081   6.312
  598DIO    C1233447   5.781   0.074   6.322
  598DIO     F433448   5.846  -0.018   6.248
  598DIO     O133449   5.432   0.205   6.370
  598DIO    C1333450   5.338   0.104   6.357
  598DIO     O233451   5.337  -0.017   6.392
  598DIO    C1433452   5.209   0.153   6.307
  598DIO    C1533453   5.142   0.271   6.367
  598DIO     F533454   5.205   0.343   6.462
  598DIO    C1633455   5.011   0.317   6.324
  598DIO    C1733456   4.936   0.243   6.224
  598DIO    C1833457   5.004   0.136   6.152
  598DIO    C1933458   5.136   0.091   6.194
  598DIO     F633459   5.199   0.002   6.114
  598DIO    C2033460   4.795   0.283   6.186
  598DIO     O333461   4.725   0.353   6.290
  598DIO    C2133462   4.682   0.267   6.395
  598DIO    C2233463   4.593   0.155   6.340
  598DIO    C2333464   4.673   0.083   6.232
  598DIO     O433465   4.718   0.175   6.133
  598DIO    C2433466   4.460   0.207   6.281
  598DIO    C2533467   4.369   0.284   6.377
  598DIO    C2633468   4.331   0.206   6.502
  598DIO     H133469   6.051   0.157   6.206
  598DIO     H233470   6.010   0.132   6.646
  598DIO     H333471   5.833   0.333   6.552
  598DIO     H433472   5.582   0.350   6.527
  598DIO     H533473   5.582   0.014   6.247
  598DIO     H633474   4.973   0.410   6.365
  598DIO     H733475   4.962   0.092   6.063
  598DIO     H833476   4.805   0.355   6.104
  598DIO     H933477   4.768   0.225   6.447
  598DIO    H1033478   4.629   0.328   6.468
  598DIO    H1133479   4.570   0.084   6.420
  598DIO    H1233480   4.612   0.007   6.183
  598DIO    H1333481   4.760   0.031   6.276
  598DIO    H1433482   4.480   0.272   6.194
  598DIO    H1533483   4.403   0.121   6.242
  598DIO    H1633484   4.417   0.379   6.407
  598DIO    H1733485   4.277   0.312   6.323
  598DIO    H1833486   4.287   0.109   6.475
  598DIO    H1933487   4.417   0.188   6.566
  598DIO    H2033488   4.257   0.262   6.560
  599DIO     F133489   8.839   3.509   5.777
  599DIO     C133490   8.761   3.413   5.724
  599DIO     C233491   8.617   3.421   5.738
  599DIO     C333492   8.528   3.316   5.684
  599DIO     C433493   8.594   3.204   5.612
  599DIO     C533494   8.738   3.198   5.599
  599DIO     F233495   8.794   3.097   5.530
  599DIO     C633496   8.822   3.302   5.654
  599DIO     F333497   8.956   3.294   5.642
  599DIO     C733498   8.382   3.323   5.698
  599DIO     C833499   8.305   3.207   5.750
  599DIO     C933500   8.160   3.213   5.764
  599DIO    C1033501   8.088   3.330   5.718
  599DIO    C1133502   8.160   3.448   5.674
  599DIO    C1233503   8.304   3.443   5.662
  599DIO     F433504   8.369   3.552   5.616
  599DIO     O133505   7.955   3.339   5.756
  599DIO    C1333506   7.861   3.398   5.672
  599DIO     O233507   7.860   3.424   5.549
  599DIO    C1433508   7.732   3.418   5.739
  599DIO    C1533509   7.665   3.311   5.816
  599DIO     F533510   7.728   3.193   5.834
  599DIO    C1633511   7.535   3.327   5.876
  599DIO    C1733512   7.459   3.450   5.857
  599DIO    C1833513   7.528   3.563   5.797
  599DIO    C1933514   7.659   3.547   5.738
  599DIO     F633515   7.722   3.660   5.697
  599DIO    C2033516   7.318   3.464   5.910
  599DIO     O333517   7.248   3.340   5.923
  599DIO    C2133518   7.205   3.288   5.798
  599DIO    C2233519   7.116   3.388   5.726
  599DIO    C2333520   7.197   3.518   5.713
  599DIO     O433521   7.241   3.562   5.841
  599DIO    C2433522   6.983   3.416   5.799
  599DIO    C2533523   6.892   3.295   5.822
  599DIO    C2633524   6.854   3.222   5.694
  599DIO     H133525   8.575   3.506   5.790
  599DIO     H233526   8.533   3.130   5.562
  599DIO     H333527   8.356   3.118   5.783
  599DIO     H433528   8.105   3.132   5.809
  599DIO     H533529   8.106   3.537   5.645
  599DIO     H633530   7.497   3.247   5.939
  599DIO     H733531   7.485   3.663   5.800
  599DIO     H833532   7.328   3.502   6.013
  599DIO     H933533   7.291   3.262   5.737
  599DIO    H1033534   7.152   3.194   5.817
  599DIO    H1133535   7.093   3.351   5.625
  599DIO    H1233536   7.136   3.597   5.669
  599DIO    H1333537   7.283   3.503   5.646
  599DIO    H1433538   7.003   3.462   5.897
  599DIO    H1533539   6.927   3.491   5.742
  599DIO    H1633540   6.940   3.225   5.892
  599DIO    H1733541   6.801   3.330   5.872
  599DIO    H1833542   6.810   3.291   5.621
  599DIO    H1933543   6.941   3.173   5.648
  599DIO    H2033544   6.780   3.144   5.716
  600DIO     F133545   4.432   4.175   3.663
  600DIO     C133546   4.354   4.084   3.602
  600DIO     C233547   4.210   4.091   3.617
  600DIO     C333548   4.121   3.991   3.554
  600DIO     C433549   4.187   3.885   3.473
  600DIO     C533550   4.331   3.880   3.460
  600DIO     F233551   4.386   3.785   3.382
  600DIO     C633552   4.415   3.979   3.523
  600DIO     F333553   4.548   3.972   3.511
  600DIO     C733554   3.975   3.996   3.569
  600DIO     C833555   3.898   3.877   3.611
  600DIO     C933556   3.753   3.882   3.625
  600DIO    C1033557   3.680   4.002   3.589
  600DIO    C1133558   3.753   4.123   3.555
  600DIO    C1233559   3.897   4.119   3.543
  600DIO     F433560   3.962   4.231   3.506
  600DIO     O133561   3.548   4.007   3.628
  600DIO    C1333562   3.454   4.073   3.550
  600DIO     O233563   3.453   4.109   3.429
  600DIO    C1433564   3.324   4.088   3.618
  600DIO    C1533565   3.258   3.974   3.685
  600DIO     F533566   3.321   3.855   3.693
  600DIO    C1633567   3.127   3.985   3.747
  600DIO    C1733568   3.052   4.110   3.738
  600DIO    C1833569   3.120   4.228   3.688
  600DIO    C1933570   3.252   4.217   3.627
  600DIO     F633571   3.314   4.332   3.596
  600DIO    C2033572   2.911   4.119   3.792
  600DIO     O333573   2.841   3.994   3.795
  600DIO    C2133574   2.797   3.953   3.666
  600DIO    C2233575   2.709   4.059   3.602
  600DIO    C2333576   2.789   4.189   3.600
  600DIO     O433577   2.834   4.223   3.731
  600DIO    C2433578   2.576   4.081   3.678
  600DIO    C2533579   2.485   3.958   3.690
  600DIO    C2633580   2.447   3.896   3.557
  600DIO     H133581   4.167   4.172   3.676
  600DIO     H233582   4.126   3.815   3.417
  600DIO     H333583   3.949   3.785   3.636
  600DIO     H433584   3.698   3.797   3.664
  600DIO     H533585   3.698   4.214   3.534
  600DIO     H633586   3.089   3.900   3.802
  600DIO     H733587   3.077   4.327   3.699
  600DIO     H833588   2.921   4.149   3.898
  600DIO     H933589   2.884   3.932   3.602
  600DIO    H1033590   2.745   3.858   3.677
  600DIO    H1133591   2.686   4.031   3.499
  600DIO    H1233592   2.728   4.272   3.563
  600DIO    H1333593   2.875   4.181   3.533
  600DIO    H1433594   2.596   4.119   3.779
  600DIO    H1533595   2.519   4.160   3.627
  600DIO    H1633596   2.532   3.882   3.753
  600DIO    H1733597   2.393   3.988   3.742
  600DIO    H1833598   2.403   3.971   3.490
  600DIO    H1933599   2.533   3.852   3.507
  600DIO    H2033600   2.373   3.817   3.572
  601DIO     F133601   4.450   7.769   8.575
  601DIO     C133602   4.372   7.777   8.685
  601DIO     C233603   4.228   7.784   8.670
  601DIO     C333604   4.139   7.795   8.788
  601DIO     C433605   4.205   7.795   8.921
  601DIO     C533606   4.349   7.788   8.933
  601DIO     F233607   4.404   7.784   9.056
  601DIO     C633608   4.433   7.778   8.816
  601DIO     F333609   4.567   7.772   8.829
  601DIO     C733610   3.993   7.804   8.775
  601DIO     C833611   3.916   7.910   8.844
  601DIO     C933612   3.771   7.918   8.831
  601DIO    C1033613   3.698   7.816   8.758
  601DIO    C1133614   3.771   7.716   8.682
  601DIO    C1233615   3.915   7.709   8.693
  601DIO     F433616   3.980   7.611   8.626
  601DIO     O133617   3.566   7.844   8.730
  601DIO    C1333618   3.472   7.742   8.725
  601DIO     O233619   3.471   7.624   8.770
  601DIO    C1433620   3.343   7.787   8.672
  601DIO    C1533621   3.276   7.909   8.722
  601DIO     F533622   3.339   7.989   8.811
  601DIO    C1633623   3.146   7.952   8.675
  601DIO    C1733624   3.070   7.869   8.582
  601DIO    C1833625   3.139   7.757   8.519
  601DIO    C1933626   3.270   7.716   8.564
  601DIO     F633627   3.333   7.621   8.491
  601DIO    C2033628   2.929   7.906   8.541
  601DIO     O333629   2.859   7.984   8.639
  601DIO    C2133630   2.816   7.907   8.750
  601DIO    C2233631   2.727   7.791   8.704
  601DIO    C2333632   2.808   7.711   8.603
  601DIO     O433633   2.852   7.795   8.496
  601DIO    C2433634   2.594   7.839   8.641
  601DIO    C2533635   2.503   7.923   8.731
  601DIO    C2633636   2.465   7.855   8.861
  601DIO     H133637   4.185   7.782   8.570
  601DIO     H233638   4.144   7.793   9.011
  601DIO     H333639   3.967   7.985   8.901
  601DIO     H433640   3.716   8.000   8.875
  601DIO     H533641   3.717   7.643   8.623
  601DIO     H633642   3.107   8.047   8.709
  601DIO     H733643   3.096   7.707   8.433
  601DIO     H833644   2.939   7.972   8.454
  601DIO     H933645   2.902   7.869   8.805
  601DIO    H1033646   2.763   7.973   8.819
  601DIO    H1133647   2.704   7.727   8.790
  601DIO    H1233648   2.746   7.631   8.559
  601DIO    H1333649   2.894   7.663   8.650
  601DIO    H1433650   2.614   7.896   8.550
  601DIO    H1533651   2.538   7.750   8.610
  601DIO    H1633652   2.551   8.020   8.753
  601DIO    H1733653   2.412   7.946   8.675
  601DIO    H1833654   2.421   7.756   8.843
  601DIO    H1933655   2.551   7.843   8.927
  601DIO    H2033656   2.391   7.915   8.915
  602DIO     F133657   2.130   6.027   6.663
  602DIO     C133658   2.053   6.019   6.554
  602DIO     C233659   1.908   6.011   6.569
  602DIO     C333660   1.820   5.999   6.451
  602DIO     C433661   1.885   5.998   6.318
  602DIO     C533662   2.029   6.005   6.306
  602DIO     F233663   2.085   6.008   6.183
  602DIO     C633664   2.113   6.016   6.423
  602DIO     F333665   2.247   6.022   6.410
  602DIO     C733666   1.673   5.990   6.464
  602DIO     C833667   1.596   5.884   6.396
  602DIO     C933668   1.451   5.876   6.409
  602DIO    C1033669   1.379   5.978   6.481
  602DIO    C1133670   1.451   6.080   6.556
  602DIO    C1233671   1.595   6.086   6.545
  602DIO     F433672   1.660   6.185   6.611
  602DIO     O133673   1.247   5.951   6.509
  602DIO    C1333674   1.152   6.053   6.513
  602DIO     O233675   1.151   6.171   6.467
  602DIO    C1433676   1.023   6.009   6.567
  602DIO    C1533677   0.957   5.886   6.519
  602DIO     F533678   1.019   5.805   6.430
  602DIO    C1633679   0.826   5.844   6.565
  602DIO    C1733680   0.750   5.927   6.658
  602DIO    C1833681   0.819   6.040   6.720
  602DIO    C1933682   0.951   6.081   6.674
  602DIO     F633683   1.013   6.177   6.745
  602DIO    C2033684   0.609   5.891   6.699
  602DIO     O333685   0.540   5.812   6.602
  602DIO    C2133686   0.496   5.888   6.490
  602DIO    C2233687   0.407   6.004   6.534
  602DIO    C2333688   0.488   6.085   6.635
  602DIO     O433689   0.532   6.003   6.743
  602DIO    C2433690   0.274   5.957   6.598
  602DIO    C2533691   0.184   5.872   6.509
  602DIO    C2633692   0.145   5.939   6.378
  602DIO     H133693   1.866   6.014   6.668
  602DIO     H233694   1.825   5.999   6.228
  602DIO     H333695   1.648   5.808   6.340
  602DIO     H433696   1.396   5.793   6.366
  602DIO     H533697   1.397   6.153   6.614
  602DIO     H633698   0.788   5.748   6.533
  602DIO     H733699   0.776   6.092   6.805
  602DIO     H833700   0.619   5.826   6.787
  602DIO     H933701   0.583   5.925   6.434
  602DIO    H1033702   0.443   5.820   6.422
  602DIO    H1133703   0.385   6.067   6.448
  602DIO    H1233704   0.427   6.165   6.678
  602DIO    H1333705   0.574   6.133   6.587
  602DIO    H1433706   0.294   5.901   6.690
  602DIO    H1533707   0.218   6.046   6.629
  602DIO    H1633708   0.231   5.775   6.488
  602DIO    H1733709   0.092   5.849   6.565
  602DIO    H1833710   0.101   6.037   6.395
  602DIO    H1933711   0.232   5.950   6.312
  602DIO    H2033712   0.072   5.877   6.325
  603DIO     F133713   3.809   0.447   5.750
  603DIO     C133714   3.732   0.340   5.726
  603DIO     C233715   3.588   0.352   5.737
  603DIO     C333716   3.499   0.236   5.714
  603DIO     C433717   3.564   0.108   5.677
  603DIO     C533718   3.709   0.099   5.666
  603DIO     F233719   3.764  -0.018   5.628
  603DIO     C633720   3.792   0.214   5.690
  603DIO     F333721   3.926   0.203   5.680
  603DIO     C733722   3.353   0.246   5.727
  603DIO     C833723   3.275   0.150   5.808
  603DIO     C933724   3.131   0.159   5.820
  603DIO    C1033725   3.058   0.259   5.743
  603DIO    C1133726   3.131   0.360   5.668
  603DIO    C1233727   3.275   0.351   5.658
  603DIO     F433728   3.340   0.443   5.584
  603DIO     O133729   2.926   0.278   5.777
  603DIO    C1333730   2.831   0.311   5.681
  603DIO     O233731   2.831   0.302   5.555
  603DIO    C1433732   2.702   0.349   5.739
  603DIO    C1533733   2.636   0.267   5.843
  603DIO     F533734   2.699   0.159   5.893
  603DIO    C1633735   2.505   0.300   5.896
  603DIO    C1733736   2.429   0.413   5.844
  603DIO    C1833737   2.498   0.505   5.754
  603DIO    C1933738   2.630   0.473   5.702
  603DIO     F633739   2.692   0.569   5.631
  603DIO    C2033740   2.289   0.441   5.891
  603DIO     O333741   2.219   0.325   5.938
  603DIO    C2133742   2.175   0.241   5.832
  603DIO    C2233743   2.086   0.317   5.734
  603DIO    C2333744   2.167   0.437   5.686
  603DIO     O433745   2.211   0.516   5.796
  603DIO    C2433746   1.954   0.364   5.797
  603DIO    C2533747   1.863   0.254   5.853
  603DIO    C2633748   1.825   0.148   5.751
  603DIO     H133749   3.545   0.448   5.763
  603DIO     H233750   3.504   0.023   5.649
  603DIO     H333751   3.327   0.073   5.865
  603DIO     H433752   3.076   0.094   5.886
  603DIO     H533753   3.076   0.437   5.615
  603DIO     H633754   2.467   0.240   5.979
  603DIO     H733755   2.455   0.601   5.729
  603DIO     H833756   2.298   0.507   5.978
  603DIO     H933757   2.262   0.198   5.780
  603DIO    H1033758   2.123   0.156   5.877
  603DIO    H1133759   2.064   0.253   5.648
  603DIO    H1233760   2.106   0.501   5.622
  603DIO    H1333761   2.253   0.405   5.626
  603DIO    H1433762   1.974   0.436   5.878
  603DIO    H1533763   1.897   0.420   5.721
  603DIO    H1633764   1.910   0.206   5.940
  603DIO    H1733765   1.771   0.301   5.891
  603DIO    H1833766   1.781   0.194   5.662
  603DIO    H1933767   1.911   0.089   5.720
  603DIO    H2033768   1.751   0.080   5.794
  604DIO     F133769   2.881   6.801   3.823
  604DIO     C133770   2.803   6.909   3.839
  604DIO     C233771   2.659   6.896   3.829
  604DIO     C333772   2.570   7.014   3.844
  604DIO     C433773   2.636   7.144   3.872
  604DIO     C533774   2.780   7.154   3.882
  604DIO     F233775   2.835   7.273   3.912
  604DIO     C633776   2.864   7.038   3.867
  604DIO     F333777   2.998   7.049   3.875
  604DIO     C733778   2.424   7.003   3.832
  604DIO     C833779   2.347   7.093   3.744
  604DIO     C933780   2.202   7.083   3.733
  604DIO    C1033781   2.129   6.989   3.816
  604DIO    C1133782   2.202   6.893   3.899
  604DIO    C1233783   2.346   6.902   3.907
  604DIO     F433784   2.411   6.816   3.988
  604DIO     O133785   1.997   6.968   3.784
  604DIO    C1333786   1.903   6.941   3.882
  604DIO     O233787   1.902   6.959   4.007
  604DIO    C1433788   1.774   6.899   3.827
  604DIO    C1533789   1.707   6.973   3.718
  604DIO     F533790   1.770   7.078   3.660
  604DIO    C1633791   1.577   6.937   3.666
  604DIO    C1733792   1.501   6.828   3.727
  604DIO    C1833793   1.570   6.743   3.823
  604DIO    C1933794   1.701   6.778   3.873
  604DIO     F633795   1.764   6.687   3.950
  604DIO    C2033796   1.360   6.796   3.682
  604DIO     O333797   1.290   6.909   3.627
  604DIO    C2133798   1.247   7.001   3.726
  604DIO    C2233799   1.158   6.932   3.829
  604DIO    C2333800   1.239   6.815   3.886
  604DIO     O433801   1.283   6.728   3.782
  604DIO    C2433802   1.025   6.880   3.770
  604DIO    C2533803   0.934   6.986   3.706
  604DIO    C2633804   0.896   7.098   3.801
  604DIO     H133805   2.616   6.799   3.810
  604DIO     H233806   2.575   7.231   3.894
  604DIO     H333807   2.398   7.165   3.682
  604DIO     H433808   2.147   7.143   3.662
  604DIO     H533809   2.148   6.820   3.957
  604DIO     H633810   1.538   6.991   3.580
  604DIO     H733811   1.527   6.648   3.854
  604DIO     H833812   1.370   6.725   3.599
  604DIO     H933813   1.333   7.046   3.775
  604DIO    H1033814   1.194   7.082   3.676
  604DIO    H1133815   1.135   7.001   3.911
  604DIO    H1233816   1.177   6.755   3.955
  604DIO    H1333817   1.325   6.851   3.943
  604DIO    H1433818   1.045   6.803   3.694
  604DIO    H1533819   0.969   6.830   3.850
  604DIO    H1633820   0.982   7.028   3.617
  604DIO    H1733821   0.843   6.936   3.672
  604DIO    H1833822   0.852   7.059   3.893
  604DIO    H1933823   0.982   7.160   3.827
  604DIO    H2033824   0.822   7.164   3.753
  605DIO     F133825   8.078   7.845   0.248
  605DIO     C133826   8.000   7.767   0.325
  605DIO     C233827   7.856   7.783   0.321
  605DIO     C333828   7.768   7.701   0.407
  605DIO     C433829   7.833   7.601   0.494
  605DIO     C533830   7.977   7.586   0.496
  605DIO     F233831   8.033   7.491   0.573
  605DIO     C633832   8.061   7.669   0.412
  605DIO     F333833   8.195   7.655   0.416
  605DIO     C733834   7.621   7.717   0.405
  605DIO     C833835   7.544   7.734   0.530
  605DIO     C933836   7.399   7.749   0.528
  605DIO    C1033837   7.327   7.738   0.403
  605DIO    C1133838   7.399   7.729   0.277
  605DIO    C1233839   7.543   7.717   0.279
  605DIO     F433840   7.608   7.703   0.162
  605DIO     O133841   7.195   7.777   0.405
  605DIO    C1333842   7.100   7.713   0.325
  605DIO     O233843   7.099   7.603   0.265
  605DIO    C1433844   6.971   7.783   0.324
  605DIO    C1533845   6.905   7.826   0.449
  605DIO     F533846   6.967   7.810   0.568
  605DIO    C1633847   6.774   7.889   0.451
  605DIO    C1733848   6.698   7.906   0.328
  605DIO    C1833849   6.767   7.880   0.202
  605DIO    C1933850   6.898   7.819   0.200
  605DIO     F633851   6.961   7.811   0.081
  605DIO    C2033852   6.557   7.961   0.329
  605DIO     O333853   6.488   7.938   0.452
  605DIO    C2133854   6.444   7.803   0.466
  605DIO    C2233855   6.355   7.762   0.349
  605DIO    C2333856   6.436   7.786   0.222
  605DIO     O433857   6.480   7.921   0.215
  605DIO    C2433858   6.222   7.841   0.343
  605DIO    C2533859   6.132   7.828   0.466
  605DIO    C2633860   6.093   7.685   0.500
  605DIO     H133861   7.814   7.857   0.254
  605DIO     H233862   7.772   7.531   0.551
  605DIO     H333863   7.596   7.740   0.625
  605DIO     H433864   7.344   7.769   0.619
  605DIO     H533865   7.345   7.726   0.184
  605DIO     H633866   6.736   7.926   0.546
  605DIO     H733867   6.724   7.911   0.107
  605DIO     H833868   6.567   8.070   0.321
  605DIO     H933869   6.531   7.736   0.474
  605DIO    H1033870   6.391   7.795   0.561
  605DIO    H1133871   6.333   7.655   0.356
  605DIO    H1233872   6.375   7.767   0.133
  605DIO    H1333873   6.522   7.719   0.216
  605DIO    H1433874   6.242   7.947   0.327
  605DIO    H1533875   6.166   7.806   0.256
  605DIO    H1633876   6.179   7.875   0.553
  605DIO    H1733877   6.040   7.885   0.447
  605DIO    H1833878   6.049   7.634   0.413
  605DIO    H1933879   6.180   7.627   0.534
  605DIO    H2033880   6.020   7.684   0.581
  606DIO     F133881   2.130   8.690   7.476
  606DIO     C133882   2.053   8.800   7.471
  606DIO     C233883   1.908   8.785   7.463
  606DIO     C333884   1.820   8.903   7.455
  606DIO     C433885   1.885   9.036   7.458
  606DIO     C533886   2.029   9.048   7.466
  606DIO     F233887   2.085   9.171   7.472
  606DIO     C633888   2.113   8.931   7.473
  606DIO     F333889   2.247   8.944   7.479
  606DIO     C733890   1.673   8.890   7.446
  606DIO     C833891   1.596   8.962   7.342
  606DIO     C933892   1.451   8.949   7.333
  606DIO    C1033893   1.379   8.874   7.433
  606DIO    C1133894   1.451   8.796   7.532
  606DIO    C1233895   1.595   8.806   7.539
  606DIO     F433896   1.660   8.737   7.635
  606DIO     O133897   1.247   8.846   7.405
  606DIO    C1333898   1.152   8.839   7.507
  606DIO     O233899   1.151   8.881   7.626
  606DIO    C1433900   1.023   8.787   7.461
  606DIO    C1533901   0.957   8.839   7.340
  606DIO     F533902   1.019   8.931   7.262
  606DIO    C1633903   0.826   8.794   7.296
  606DIO    C1733904   0.750   8.699   7.376
  606DIO    C1833905   0.819   8.633   7.487
  606DIO    C1933906   0.951   8.678   7.529
  606DIO     F633907   1.013   8.603   7.623
  606DIO    C2033908   0.609   8.659   7.339
  606DIO     O333909   0.540   8.758   7.263
  606DIO    C2133910   0.496   8.868   7.343
  606DIO    C2233911   0.407   8.820   7.457
  606DIO    C2333912   0.488   8.716   7.535
  606DIO     O433913   0.532   8.611   7.449
  606DIO    C2433914   0.274   8.757   7.409
  606DIO    C2533915   0.184   8.849   7.326
  606DIO    C2633916   0.145   8.978   7.397
  606DIO     H133917   1.866   8.685   7.463
  606DIO     H233918   1.825   9.126   7.462
  606DIO     H333919   1.648   9.021   7.267
  606DIO     H433920   1.396   8.995   7.252
  606DIO     H533921   1.397   8.735   7.603
  606DIO     H633922   0.788   8.830   7.201
  606DIO     H733923   0.776   8.547   7.536
  606DIO     H833924   0.619   8.573   7.271
  606DIO     H933925   0.583   8.922   7.382
  606DIO    H1033926   0.443   8.938   7.278
  606DIO    H1133927   0.385   8.904   7.523
  606DIO    H1233928   0.427   8.671   7.614
  606DIO    H1333929   0.574   8.763   7.584
  606DIO    H1433930   0.294   8.667   7.349
  606DIO    H1533931   0.218   8.724   7.496
  606DIO    H1633932   0.231   8.873   7.230
  606DIO    H1733933   0.092   8.794   7.302
  606DIO    H1833934   0.101   8.957   7.495
  606DIO    H1933935   0.232   9.044   7.411
  606DIO    H2033936   0.072   9.033   7.338
  607DIO     F133937   4.628   1.223   1.584
  607DIO     C133938   4.550   1.274   1.682
  607DIO     C233939   4.406   1.275   1.665
  607DIO     C333940   4.317   1.332   1.769
  607DIO     C433941   4.383   1.386   1.890
  607DIO     C533942   4.527   1.384   1.905
  607DIO     F233943   4.583   1.430   2.019
  607DIO     C633944   4.611   1.328   1.801
  607DIO     F333945   4.745   1.327   1.816
  607DIO     C733946   4.171   1.335   1.753
  607DIO     C833947   4.094   1.460   1.774
  607DIO     C933948   3.949   1.462   1.759
  607DIO    C1033949   3.877   1.339   1.733
  607DIO    C1133950   3.949   1.217   1.704
  607DIO    C1233951   4.093   1.215   1.716
  607DIO     F433952   4.158   1.099   1.694
  607DIO     O133953   3.744   1.353   1.696
  607DIO    C1333954   3.650   1.258   1.733
  607DIO     O233955   3.649   1.168   1.821
  607DIO    C1433956   3.521   1.278   1.666
  607DIO    C1533957   3.455   1.410   1.662
  607DIO     F533958   3.517   1.519   1.712
  607DIO    C1633959   3.324   1.430   1.602
  607DIO    C1733960   3.248   1.317   1.550
  607DIO    C1833961   3.317   1.189   1.537
  607DIO    C1933962   3.448   1.170   1.596
  607DIO     F633963   3.511   1.053   1.567
  607DIO    C2033964   3.107   1.335   1.498
  607DIO     O333965   3.038   1.445   1.556
  607DIO    C2133966   2.994   1.419   1.689
  607DIO    C2233967   2.905   1.295   1.694
  607DIO    C2333968   2.986   1.181   1.633
  607DIO     O433969   3.030   1.214   1.502
  607DIO    C2433970   2.772   1.313   1.617
  607DIO    C2533971   2.682   1.427   1.665
  607DIO    C2633972   2.643   1.416   1.812
  607DIO     H133973   4.364   1.233   1.575
  607DIO     H233974   4.322   1.420   1.974
  607DIO     H333975   4.145   1.552   1.796
  607DIO     H433976   3.894   1.555   1.766
  607DIO     H533977   3.895   1.127   1.679
  607DIO     H633978   3.286   1.531   1.595
  607DIO     H733979   3.274   1.108   1.480
  607DIO     H833980   3.117   1.360   1.392
  607DIO     H933981   3.081   1.407   1.755
  607DIO    H1033982   2.941   1.508   1.725
  607DIO    H1133983   2.882   1.271   1.798
  607DIO    H1233984   2.925   1.090   1.625
  607DIO    H1333985   3.072   1.156   1.696
  607DIO    H1433986   2.792   1.329   1.510
  607DIO    H1533987   2.716   1.219   1.624
  607DIO    H1633988   2.729   1.524   1.646
  607DIO    H1733989   2.590   1.425   1.605
  607DIO    H1833990   2.599   1.319   1.835
  607DIO    H1933991   2.730   1.432   1.877
  607DIO    H2033992   2.569   1.493   1.837
  608DIO     F133993   8.546   1.911   2.666
  608DIO     C133994   8.469   1.865   2.566
  608DIO     C233995   8.325   1.863   2.583
  608DIO     C333996   8.236   1.812   2.477
  608DIO     C433997   8.301   1.765   2.352
  608DIO     C533998   8.446   1.768   2.338
  608DIO     F233999   8.501   1.728   2.222
  608DIO     C634000   8.529   1.818   2.444
  608DIO     F334001   8.663   1.819   2.430
  608DIO     C734002   8.089   1.808   2.492
  608DIO     C834003   8.012   1.685   2.464
  608DIO     C934004   7.868   1.681   2.479
  608DIO    C1034005   7.795   1.802   2.512
  608DIO    C1134006   7.868   1.923   2.548
  608DIO    C1234007   8.012   1.926   2.535
  608DIO     F434008   8.077   2.041   2.563
  608DIO     O134009   7.663   1.786   2.548
  608DIO    C1334010   7.568   1.884   2.516
  608DIO     O234011   7.567   1.978   2.433
  608DIO    C1434012   7.439   1.860   2.582
  608DIO    C1534013   7.373   1.728   2.579
  608DIO     F534014   7.436   1.622   2.523
  608DIO    C1634015   7.242   1.705   2.637
  608DIO    C1734016   7.166   1.815   2.696
  608DIO    C1834017   7.235   1.942   2.715
  608DIO    C1934018   7.367   1.964   2.658
  608DIO     F634019   7.429   2.079   2.693
  608DIO    C2034020   7.026   1.794   2.747
  608DIO     O334021   6.956   1.687   2.683
  608DIO    C2134022   6.912   1.720   2.551
  608DIO    C2234023   6.823   1.844   2.553
  608DIO    C2334024   6.904   1.955   2.621
  608DIO     O434025   6.948   1.915   2.750
  608DIO    C2434026   6.691   1.823   2.629
  608DIO    C2534027   6.600   1.712   2.575
  608DIO    C2634028   6.561   1.730   2.429
  608DIO     H134029   8.282   1.900   2.676
  608DIO     H234030   8.241   1.735   2.267
  608DIO     H334031   8.064   1.594   2.437
  608DIO     H434032   7.813   1.589   2.467
  608DIO     H534033   7.813   2.012   2.577
  608DIO     H634034   7.204   1.603   2.639
  608DIO     H734035   7.192   2.019   2.778
  608DIO     H834036   7.035   1.764   2.852
  608DIO     H934037   6.999   1.736   2.486
  608DIO    H1034038   6.859   1.634   2.510
  608DIO    H1134039   6.801   1.875   2.451
  608DIO    H1234040   6.843   2.045   2.633
  608DIO    H1334041   6.990   1.984   2.559
  608DIO    H1434042   6.710   1.801   2.735
  608DIO    H1534043   6.634   1.917   2.628
  608DIO    H1634044   6.647   1.614   2.588
  608DIO    H1734045   6.508   1.710   2.635
  608DIO    H1834046   6.518   1.829   2.411
  608DIO    H1934047   6.648   1.718   2.363
  608DIO    H2034048   6.488   1.654   2.400
  609DIO     F134049   8.361   1.522   0.760
  609DIO     C134050   8.284   1.593   0.844
  609DIO     C234051   8.139   1.590   0.827
  609DIO     C334052   8.051   1.669   0.916
  609DIO     C434053   8.116   1.748   1.023
  609DIO     C534054   8.260   1.749   1.037
  609DIO     F234055   8.316   1.819   1.138
  609DIO     C634056   8.344   1.672   0.949
  609DIO     F334057   8.478   1.674   0.963
  609DIO     C734058   7.904   1.668   0.900
  609DIO     C834059   7.827   1.794   0.893
  609DIO     C934060   7.682   1.793   0.878
  609DIO    C1034061   7.610   1.668   0.879
  609DIO    C1134062   7.682   1.542   0.878
  609DIO    C1234063   7.826   1.543   0.891
  609DIO     F434064   7.891   1.425   0.895
  609DIO     O134065   7.478   1.673   0.840
  609DIO    C1334066   7.383   1.588   0.897
  609DIO     O234067   7.382   1.520   1.003
  609DIO    C1434068   7.254   1.593   0.828
  609DIO    C1534069   7.188   1.721   0.795
  609DIO     F534070   7.250   1.838   0.820
  609DIO    C1634071   7.057   1.728   0.732
  609DIO    C1734072   6.981   1.606   0.706
  609DIO    C1834073   7.050   1.478   0.722
  609DIO    C1934074   7.182   1.472   0.783
  609DIO     F634075   7.244   1.352   0.781
  609DIO    C2034076   6.840   1.612   0.651
  609DIO     O334077   6.771   1.732   0.684
  609DIO    C2134078   6.727   1.736   0.819
  609DIO    C2234079   6.638   1.616   0.851
  609DIO    C2334080   6.719   1.491   0.817
  609DIO     O434081   6.763   1.495   0.681
  609DIO    C2434082   6.505   1.617   0.772
  609DIO    C2534083   6.415   1.738   0.794
  609DIO    C2634084   6.376   1.760   0.940
  609DIO     H134085   8.097   1.529   0.749
  609DIO     H234086   8.056   1.799   1.097
  609DIO     H334087   7.879   1.889   0.894
  609DIO     H434088   7.627   1.886   0.865
  609DIO     H534089   7.628   1.449   0.873
  609DIO     H634090   7.019   1.825   0.703
  609DIO     H734091   7.007   1.387   0.683
  609DIO     H834092   6.850   1.613   0.542
  609DIO     H934093   6.814   1.738   0.886
  609DIO    H1034094   6.674   1.830   0.835
  609DIO    H1134095   6.616   1.615   0.958
  609DIO    H1234096   6.658   1.401   0.829
  609DIO    H1334097   6.805   1.481   0.884
  609DIO    H1434098   6.525   1.609   0.664
  609DIO    H1534099   6.449   1.526   0.799
  609DIO    H1634100   6.462   1.829   0.755
  609DIO    H1734101   6.323   1.724   0.736
  609DIO    H1834102   6.332   1.670   0.983
  609DIO    H1934103   6.463   1.790   1.000
  609DIO    H2034104   6.303   1.841   0.947
  610DIO     F134105   6.424   1.110   5.061
  610DIO     C134106   6.346   1.023   5.129
  610DIO     C234107   6.202   1.040   5.126
  610DIO     C334108   6.113   0.948   5.201
  610DIO     C434109   6.179   0.838   5.276
  610DIO     C534110   6.323   0.823   5.276
  610DIO     F234111   6.378   0.719   5.342
  610DIO     C634112   6.407   0.915   5.203
  610DIO     F334113   6.540   0.901   5.205
  610DIO     C734114   5.967   0.964   5.201
  610DIO     C834115   5.890   0.966   5.328
  610DIO     C934116   5.745   0.981   5.328
  610DIO    C1034117   5.672   0.985   5.202
  610DIO    C1134118   5.745   0.991   5.076
  610DIO    C1234119   5.889   0.979   5.077
  610DIO     F434120   5.954   0.979   4.958
  610DIO     O134121   5.540   1.023   5.209
  610DIO    C1334122   5.446   0.970   5.122
  610DIO     O234123   5.445   0.867   5.049
  610DIO    C1434124   5.316   1.039   5.129
  610DIO    C1534125   5.250   1.067   5.259
  610DIO     F534126   5.313   1.037   5.375
  610DIO    C1634127   5.119   1.129   5.268
  610DIO    C1734128   5.044   1.161   5.147
  610DIO    C1834129   5.112   1.150   5.019
  610DIO    C1934130   5.244   1.089   5.010
  610DIO     F634131   5.306   1.096   4.891
  610DIO    C2034132   4.903   1.215   5.155
  610DIO     O334133   4.833   1.177   5.275
  610DIO    C2134134   4.789   1.042   5.273
  610DIO    C2234135   4.701   1.015   5.152
  610DIO    C2334136   4.781   1.055   5.028
  610DIO     O434137   4.826   1.190   5.037
  610DIO    C2434138   4.568   1.094   5.155
  610DIO    C2534139   4.477   1.067   5.276
  610DIO    C2634140   4.439   0.921   5.292
  610DIO     H134141   6.159   1.121   5.069
  610DIO     H234142   6.118   0.762   5.324
  610DIO     H334143   5.941   0.960   5.422
  610DIO     H434144   5.690   0.990   5.420
  610DIO     H534145   5.690   1.000   4.983
  610DIO     H634146   5.081   1.155   5.366
  610DIO     H734147   5.069   1.193   4.929
  610DIO     H834148   4.913   1.324   5.161
  610DIO     H934149   4.876   0.975   5.272
  610DIO    H1034150   4.737   1.022   5.366
  610DIO    H1134151   4.678   0.908   5.146
  610DIO    H1234152   4.720   1.046   4.938
  610DIO    H1334153   4.867   0.988   5.015
  610DIO    H1434154   4.588   1.202   5.152
  610DIO    H1534155   4.511   1.071   5.064
  610DIO    H1634156   4.524   1.103   5.368
  610DIO    H1734157   4.385   1.126   5.264
  610DIO    H1834158   4.395   0.881   5.200
  610DIO    H1934159   4.525   0.859   5.319
  610DIO    H2034160   4.365   0.910   5.372
  611DIO     F134161   6.648   6.610   5.247
  611DIO     C134162   6.570   6.683   5.164
  611DIO     C234163   6.426   6.667   5.170
  611DIO     C334164   6.337   6.743   5.079
  611DIO     C434165   6.403   6.837   4.985
  611DIO     C534166   6.547   6.852   4.982
  611DIO     F234167   6.602   6.942   4.898
  611DIO     C634168   6.631   6.775   5.071
  611DIO     F334169   6.764   6.789   5.067
  611DIO     C734170   6.191   6.727   5.082
  611DIO     C834171   6.114   6.702   4.958
  611DIO     C934172   5.969   6.687   4.961
  611DIO    C1034173   5.896   6.707   5.085
  611DIO    C1134174   5.969   6.724   5.210
  611DIO    C1234175   6.113   6.736   5.207
  611DIO     F434176   6.178   6.758   5.324
  611DIO     O134177   5.764   6.668   5.085
  611DIO    C1334178   5.670   6.736   5.161
  611DIO     O234179   5.669   6.851   5.213
  611DIO    C1434180   5.541   6.667   5.167
  611DIO    C1534181   5.474   6.616   5.045
  611DIO     F534182   5.537   6.623   4.925
  611DIO    C1634183   5.343   6.553   5.047
  611DIO    C1734184   5.268   6.544   5.172
  611DIO    C1834185   5.336   6.578   5.295
  611DIO    C1934186   5.468   6.640   5.293
  611DIO     F634187   5.531   6.655   5.412
  611DIO    C2034188   5.127   6.490   5.174
  611DIO     O334189   5.057   6.504   5.050
  611DIO    C2134190   5.014   6.638   5.026
  611DIO    C2234191   4.925   6.687   5.140
  611DIO    C2334192   5.005   6.671   5.269
  611DIO     O434193   5.050   6.536   5.285
  611DIO    C2434194   4.792   6.608   5.151
  611DIO    C2534195   4.701   6.613   5.028
  611DIO    C2634196   4.663   6.753   4.985
  611DIO     H134197   6.383   6.598   5.241
  611DIO     H234198   6.342   6.903   4.924
  611DIO     H334199   6.165   6.690   4.864
  611DIO     H434200   5.914   6.661   4.872
  611DIO     H534201   5.914   6.733   5.303
  611DIO     H634202   5.305   6.510   4.955
  611DIO     H734203   5.294   6.554   5.392
  611DIO     H834204   5.137   6.381   5.189
  611DIO     H934205   5.100   6.703   5.014
  611DIO    H1034206   4.961   6.639   4.931
  611DIO    H1134207   4.902   6.793   5.126
  611DIO    H1234208   4.944   6.696   5.356
  611DIO    H1334209   5.092   6.739   5.270
  611DIO    H1434210   4.812   6.503   5.175
  611DIO    H1534211   4.735   6.648   5.237
  611DIO    H1634212   4.749   6.560   4.944
  611DIO    H1734213   4.609   6.557   5.051
  611DIO    H1834214   4.619   6.810   5.068
  611DIO    H1934215   4.749   6.809   4.947
  611DIO    H2034216   4.589   6.749   4.904
  612DIO     F134217   7.392   0.220   1.489
  612DIO     C134218   7.314   0.253   1.384
  612DIO     C234219   7.170   0.241   1.396
  612DIO     C334220   7.081   0.274   1.282
  612DIO     C434221   7.147   0.323   1.158
  612DIO     C534222   7.291   0.334   1.149
  612DIO     F234223   7.346   0.383   1.037
  612DIO     C634224   7.375   0.300   1.262
  612DIO     F334225   7.509   0.311   1.252
  612DIO     C734226   6.935   0.261   1.291
  612DIO     C834227   6.858   0.188   1.188
  612DIO     C934228   6.713   0.175   1.196
  612DIO    C1034229   6.640   0.243   1.302
  612DIO    C1134230   6.713   0.309   1.409
  612DIO    C1234231   6.857   0.319   1.402
  612DIO     F434232   6.922   0.386   1.500
  612DIO     O134233   6.508   0.207   1.318
  612DIO    C1334234   6.414   0.301   1.360
  612DIO     O234235   6.413   0.427   1.361
  612DIO    C1434236   6.285   0.239   1.393
  612DIO    C1534237   6.218   0.143   1.302
  612DIO     F534238   6.281   0.102   1.189
  612DIO    C1634239   6.088   0.087   1.329
  612DIO    C1734240   6.012   0.129   1.447
  612DIO    C1834241   6.081   0.210   1.546
  612DIO    C1934242   6.212   0.266   1.519
  612DIO     F634243   6.275   0.328   1.622
  612DIO    C2034244   5.871   0.080   1.471
  612DIO     O334245   5.801   0.043   1.351
  612DIO    C2134246   5.758   0.156   1.276
  612DIO    C2234247   5.669   0.247   1.361
  612DIO    C2334248   5.750   0.284   1.485
  612DIO     O434249   5.794   0.168   1.554
  612DIO    C2434250   5.536   0.180   1.402
  612DIO    C2534251   5.445   0.134   1.288
  612DIO    C2634252   5.407   0.245   1.192
  612DIO     H134253   7.127   0.206   1.489
  612DIO     H234254   7.086   0.358   1.075
  612DIO     H334255   6.909   0.138   1.107
  612DIO     H434256   6.658   0.115   1.125
  612DIO     H534257   6.659   0.355   1.491
  612DIO     H634258   6.049   0.010   1.263
  612DIO     H734259   6.038   0.226   1.644
  612DIO     H834260   5.881  -0.013   1.528
  612DIO     H934261   5.844   0.212   1.239
  612DIO    H1034262   5.705   0.119   1.188
  612DIO    H1134263   5.646   0.338   1.305
  612DIO    H1234264   5.688   0.343   1.555
  612DIO    H1334265   5.836   0.347   1.458
  612DIO    H1434266   5.556   0.093   1.466
  612DIO    H1534267   5.480   0.251   1.464
  612DIO    H1634268   5.493   0.052   1.232
  612DIO    H1734269   5.354   0.092   1.331
  612DIO    H1834270   5.363   0.330   1.245
  612DIO    H1934271   5.493   0.281   1.135
  612DIO    H2034272   5.333   0.209   1.119
  613DIO     F134273   2.130   1.984   8.988
  613DIO     C134274   2.053   2.086   8.946
  613DIO     C234275   1.908   2.069   8.943
  613DIO     C334276   1.820   2.178   8.896
  613DIO     C434277   1.885   2.304   8.854
  613DIO     C534278   2.029   2.318   8.857
  613DIO     F234279   2.085   2.436   8.822
  613DIO     C634280   2.113   2.210   8.903
  613DIO     F334281   2.247   2.224   8.905
  613DIO     C734282   1.673   2.162   8.892
  613DIO     C834283   1.596   2.195   8.770
  613DIO     C934284   1.451   2.180   8.766
  613DIO    C1034285   1.379   2.142   8.885
  613DIO    C1134286   1.451   2.103   9.005
  613DIO    C1234287   1.595   2.115   9.008
  613DIO     F434288   1.660   2.082   9.122
  613DIO     O134289   1.247   2.107   8.868
  613DIO    C1334290   1.152   2.135   8.967
  613DIO     O234291   1.151   2.215   9.064
  613DIO    C1434292   1.023   2.071   8.941
  613DIO    C1534293   0.957   2.079   8.809
  613DIO     F534294   1.019   2.139   8.705
  613DIO    C1634295   0.826   2.021   8.783
  613DIO    C1734296   0.750   1.959   8.891
  613DIO    C1834297   0.819   1.934   9.017
  613DIO    C1934298   0.951   1.990   9.042
  613DIO     F634299   1.013   1.952   9.155
  613DIO    C2034300   0.609   1.908   8.868
  613DIO     O334301   0.540   1.977   8.764
  613DIO    C2134302   0.496   2.106   8.802
  613DIO    C2234303   0.407   2.100   8.926
  613DIO    C2334304   0.488   2.028   9.034
  613DIO     O434305   0.532   1.901   8.989
  613DIO    C2434306   0.274   2.025   8.901
  613DIO    C2534307   0.184   2.083   8.792
  613DIO    C2634308   0.145   2.229   8.816
  613DIO     H134309   1.866   1.975   8.977
  613DIO     H234310   1.825   2.390   8.828
  613DIO     H334311   1.648   2.225   8.680
  613DIO     H434312   1.396   2.196   8.674
  613DIO     H534313   1.397   2.069   9.092
  613DIO     H634314   0.788   2.023   8.682
  613DIO     H734315   0.776   1.869   9.092
  613DIO     H834316   0.619   1.805   8.834
  613DIO     H934317   0.583   2.171   8.820
  613DIO    H1034318   0.443   2.151   8.717
  613DIO    H1134319   0.385   2.201   8.960
  613DIO    H1234320   0.427   2.013   9.124
  613DIO    H1334321   0.574   2.089   9.065
  613DIO    H1434322   0.294   1.920   8.875
  613DIO    H1534323   0.218   2.023   8.995
  613DIO    H1634324   0.231   2.074   8.694
  613DIO    H1734325   0.092   2.023   8.788
  613DIO    H1834326   0.101   2.242   8.915
  613DIO    H1934327   0.232   2.295   8.807
  613DIO    H2034328   0.072   2.260   8.742
  614DIO     F134329   2.130   4.287   8.408
  614DIO     C134330   2.053   4.355   8.321
  614DIO     C234331   1.908   4.339   8.327
  614DIO     C334332   1.820   4.410   8.232
  614DIO     C434333   1.885   4.499   8.133
  614DIO     C534334   2.029   4.513   8.129
  614DIO     F234335   2.085   4.598   8.040
  614DIO     C634336   2.113   4.442   8.223
  614DIO     F334337   2.247   4.455   8.217
  614DIO     C734338   1.673   4.394   8.236
  614DIO     C834339   1.596   4.362   8.114
  614DIO     C934340   1.451   4.347   8.118
  614DIO    C1034341   1.379   4.374   8.241
  614DIO    C1134342   1.451   4.399   8.364
  614DIO    C1234343   1.595   4.411   8.361
  614DIO     F434344   1.660   4.439   8.476
  614DIO     O134345   1.247   4.335   8.243
  614DIO    C1334346   1.152   4.408   8.315
  614DIO     O234347   1.151   4.525   8.360
  614DIO    C1434348   1.023   4.339   8.324
  614DIO    C1534349   0.957   4.281   8.205
  614DIO     F534350   1.019   4.282   8.086
  614DIO    C1634351   0.826   4.218   8.212
  614DIO    C1734352   0.750   4.217   8.336
  614DIO    C1834353   0.819   4.258   8.458
  614DIO    C1934354   0.951   4.319   8.452
  614DIO     F634355   1.013   4.342   8.569
  614DIO    C2034356   0.609   4.162   8.342
  614DIO     O334357   0.540   4.170   8.217
  614DIO    C2134358   0.496   4.302   8.186
  614DIO    C2234359   0.407   4.357   8.297
  614DIO    C2334360   0.488   4.349   8.426
  614DIO     O434361   0.532   4.215   8.450
  614DIO    C2434362   0.274   4.280   8.313
  614DIO    C2534363   0.184   4.277   8.189
  614DIO    C2634364   0.145   4.415   8.138
  614DIO     H134365   1.866   4.274   8.403
  614DIO     H234366   1.825   4.560   8.068
  614DIO     H334367   1.648   4.344   8.021
  614DIO     H434368   1.396   4.316   8.030
  614DIO     H534369   1.397   4.413   8.456
  614DIO     H634370   0.788   4.170   8.123
  614DIO     H734371   0.776   4.239   8.556
  614DIO     H834372   0.619   4.055   8.363
  614DIO     H934373   0.583   4.367   8.170
  614DIO    H1034374   0.443   4.298   8.090
  614DIO    H1134375   0.385   4.462   8.276
  614DIO    H1234376   0.427   4.379   8.512
  614DIO    H1334377   0.574   4.417   8.423
  614DIO    H1434378   0.294   4.176   8.342
  614DIO    H1534379   0.218   4.324   8.395
  614DIO    H1634380   0.231   4.220   8.108
  614DIO    H1734381   0.092   4.222   8.215
  614DIO    H1834382   0.101   4.476   8.217
  614DIO    H1934383   0.232   4.468   8.097
  614DIO    H2034384   0.072   4.405   8.057
  615DIO     F134385   5.014   3.941   5.867
  615DIO     C134386   4.937   3.976   5.763
  615DIO     C234387   4.792   3.963   5.774
  615DIO     C334388   4.704   3.999   5.661
  615DIO     C434389   4.769   4.050   5.538
  615DIO     C534390   4.913   4.062   5.530
  615DIO     F234391   4.969   4.113   5.418
  615DIO     C634392   4.997   4.026   5.642
  615DIO     F334393   5.131   4.036   5.632
  615DIO     C734394   4.557   3.986   5.670
  615DIO     C834395   4.480   3.915   5.565
  615DIO     C934396   4.335   3.902   5.573
  615DIO    C1034397   4.263   3.968   5.680
  615DIO    C1134398   4.335   4.031   5.789
  615DIO    C1234399   4.479   4.042   5.782
  615DIO     F434400   4.544   4.106   5.881
  615DIO     O134401   4.131   3.932   5.696
  615DIO    C1334402   4.036   4.024   5.739
  615DIO     O234403   4.035   4.150   5.744
  615DIO    C1434404   3.907   3.962   5.771
  615DIO    C1534405   3.841   3.868   5.678
  615DIO     F534406   3.903   3.829   5.565
  615DIO    C1634407   3.710   3.811   5.704
  615DIO    C1734408   3.634   3.851   5.822
  615DIO    C1834409   3.703   3.930   5.924
  615DIO    C1934410   3.835   3.985   5.898
  615DIO     F634411   3.897   4.045   6.002
  615DIO    C2034412   3.493   3.801   5.846
  615DIO     O334413   3.424   3.767   5.725
  615DIO    C2134414   3.380   3.881   5.653
  615DIO    C2234415   3.291   3.970   5.739
  615DIO    C2334416   3.372   4.005   5.864
  615DIO     O434417   3.416   3.887   5.930
  615DIO    C2434418   3.158   3.902   5.779
  615DIO    C2534419   3.068   3.859   5.664
  615DIO    C2634420   3.029   3.972   5.570
  615DIO     H134421   4.750   3.927   5.867
  615DIO     H234422   4.709   4.087   5.456
  615DIO     H334423   4.532   3.867   5.483
  615DIO     H434424   4.280   3.844   5.501
  615DIO     H534425   4.281   4.075   5.872
  615DIO     H634426   3.672   3.736   5.636
  615DIO     H734427   3.660   3.944   6.022
  615DIO     H834428   3.503   3.707   5.901
  615DIO     H934429   3.467   3.937   5.616
  615DIO    H1034430   3.327   3.846   5.564
  615DIO    H1134431   3.269   4.063   5.685
  615DIO    H1234432   3.311   4.062   5.935
  615DIO    H1334433   3.458   4.068   5.839
  615DIO    H1434434   3.178   3.814   5.841
  615DIO    H1534435   3.102   3.972   5.843
  615DIO    H1634436   3.115   3.778   5.606
  615DIO    H1734437   2.976   3.816   5.706
  615DIO    H1834438   2.985   4.056   5.625
  615DIO    H1934439   3.116   4.009   5.514
  615DIO    H2034440   2.956   3.937   5.497
  616DIO     F134441   4.149   7.065   2.807
  616DIO     C134442   4.072   7.140   2.886
  616DIO     C234443   3.927   7.137   2.870
  616DIO     C334444   3.839   7.220   2.954
  616DIO     C434445   3.904   7.305   3.056
  616DIO     C534446   4.048   7.307   3.071
  616DIO     F234447   4.104   7.382   3.168
  616DIO     C634448   4.132   7.225   2.987
  616DIO     F334449   4.266   7.228   3.000
  616DIO     C734450   3.692   7.218   2.938
  616DIO     C834451   3.615   7.344   2.924
  616DIO     C934452   3.470   7.342   2.909
  616DIO    C1034453   3.398   7.217   2.917
  616DIO    C1134454   3.470   7.091   2.923
  616DIO    C1234455   3.614   7.093   2.936
  616DIO     F434456   3.679   6.975   2.947
  616DIO     O134457   3.266   7.220   2.878
  616DIO    C1334458   3.171   7.139   2.940
  616DIO     O234459   3.170   7.077   3.049
  616DIO    C1434460   3.042   7.140   2.870
  616DIO    C1534461   2.976   7.266   2.830
  616DIO     F534462   3.038   7.384   2.848
  616DIO    C1634463   2.845   7.269   2.767
  616DIO    C1734464   2.769   7.146   2.748
  616DIO    C1834465   2.838   7.019   2.771
  616DIO    C1934466   2.970   7.016   2.832
  616DIO     F634467   3.032   6.897   2.837
  616DIO    C2034468   2.628   7.148   2.693
  616DIO     O334469   2.559   7.271   2.718
  616DIO    C2134470   2.515   7.282   2.853
  616DIO    C2234471   2.426   7.164   2.892
  616DIO    C2334472   2.507   7.037   2.865
  616DIO     O434473   2.551   7.033   2.729
  616DIO    C2434474   2.293   7.160   2.813
  616DIO    C2534475   2.203   7.282   2.829
  616DIO    C2634476   2.164   7.313   2.972
  616DIO     H134477   3.885   7.071   2.795
  616DIO     H234478   3.844   7.360   3.127
  616DIO     H334479   3.667   7.439   2.920
  616DIO     H434480   3.415   7.434   2.890
  616DIO     H534481   3.416   6.998   2.924
  616DIO     H634482   2.807   7.364   2.732
  616DIO     H734483   2.795   6.926   2.737
  616DIO     H834484   2.638   7.143   2.584
  616DIO     H934485   2.602   7.288   2.920
  616DIO    H1034486   2.462   7.377   2.864
  616DIO    H1134487   2.404   7.169   2.999
  616DIO    H1234488   2.446   6.948   2.882
  616DIO    H1334489   2.593   7.030   2.932
  616DIO    H1434490   2.313   7.146   2.706
  616DIO    H1534491   2.237   7.071   2.845
  616DIO    H1634492   2.250   7.371   2.784
  616DIO    H1734493   2.111   7.265   2.771
  616DIO    H1834494   2.120   7.225   3.021
  616DIO    H1934495   2.251   7.345   3.031
  616DIO    H2034496   2.091   7.394   2.975
  617DIO     F134497   2.136   6.533   0.930
  617DIO     C134498   2.058   6.640   0.955
  617DIO     C234499   1.914   6.627   0.943
  617DIO     C334500   1.825   6.743   0.968
  617DIO     C434501   1.891   6.870   1.007
  617DIO     C534502   2.035   6.880   1.018
  617DIO     F234503   2.090   6.996   1.058
  617DIO     C634504   2.119   6.765   0.993
  617DIO     F334505   2.252   6.776   1.002
  617DIO     C734506   1.679   6.733   0.955
  617DIO     C834507   1.602   6.831   0.875
  617DIO     C934508   1.457   6.821   0.863
  617DIO    C1034509   1.384   6.721   0.939
  617DIO    C1134510   1.457   6.619   1.012
  617DIO    C1234511   1.601   6.627   1.022
  617DIO     F434512   1.666   6.534   1.096
  617DIO     O134513   1.252   6.702   0.904
  617DIO    C1334514   1.158   6.668   1.000
  617DIO     O234515   1.157   6.675   1.126
  617DIO    C1434516   1.029   6.630   0.942
  617DIO    C1534517   0.962   6.714   0.839
  617DIO     F534518   1.025   6.822   0.790
  617DIO    C1634519   0.831   6.682   0.785
  617DIO    C1734520   0.756   6.568   0.836
  617DIO    C1834521   0.824   6.475   0.924
  617DIO    C1934522   0.956   6.506   0.977
  617DIO     F634523   1.019   6.409   1.047
  617DIO    C2034524   0.615   6.540   0.789
  617DIO     O334525   0.545   6.657   0.743
  617DIO    C2134526   0.502   6.740   0.850
  617DIO    C2234527   0.413   6.662   0.947
  617DIO    C2334528   0.493   6.541   0.993
  617DIO     O434529   0.538   6.464   0.882
  617DIO    C2434530   0.280   6.616   0.883
  617DIO    C2534531   0.189   6.727   0.829
  617DIO    C2634532   0.151   6.831   0.932
  617DIO     H134533   1.871   6.532   0.916
  617DIO     H234534   1.830   6.956   1.036
  617DIO     H334535   1.653   6.908   0.819
  617DIO     H434536   1.402   6.887   0.798
  617DIO     H534537   1.402   6.541   1.064
  617DIO     H634538   0.793   6.742   0.703
  617DIO     H734539   0.782   6.378   0.948
  617DIO     H834540   0.625   6.476   0.700
  617DIO     H934541   0.588   6.782   0.902
  617DIO    H1034542   0.449   6.825   0.806
  617DIO    H1134543   0.390   6.725   1.034
  617DIO    H1234544   0.432   6.476   1.057
  617DIO    H1334545   0.580   6.573   1.054
  617DIO    H1434546   0.300   6.546   0.801
  617DIO    H1534547   0.223   6.559   0.958
  617DIO    H1634548   0.237   6.776   0.743
  617DIO    H1734549   0.097   6.680   0.790
  617DIO    H1834550   0.107   6.784   1.021
  617DIO    H1934551   0.237   6.890   0.964
  617DIO    H2034552   0.077   6.900   0.890
  618DIO     F134553   9.244   6.332   5.731
  618DIO     C134554   9.167   6.232   5.777
  618DIO     C234555   9.023   6.248   5.778
  618DIO     C334556   8.934   6.141   5.829
  618DIO     C434557   8.999   6.017   5.875
  618DIO     C534558   9.144   6.002   5.872
  618DIO     F234559   9.199   5.886   5.911
  618DIO     C634560   9.227   6.109   5.823
  618DIO     F334561   9.361   6.095   5.821
  618DIO     C734562   8.787   6.157   5.833
  618DIO     C834563   8.710   6.128   5.956
  618DIO     C934564   8.566   6.143   5.960
  618DIO    C1034565   8.493   6.177   5.839
  618DIO    C1134566   8.566   6.213   5.718
  618DIO    C1234567   8.710   6.201   5.715
  618DIO     F434568   8.775   6.230   5.601
  618DIO     O134569   8.361   6.213   5.855
  618DIO    C1334570   8.266   6.182   5.757
  618DIO     O234571   8.265   6.099   5.662
  618DIO    C1434572   8.137   6.247   5.781
  618DIO    C1534573   8.071   6.243   5.913
  618DIO     F534574   8.134   6.186   6.019
  618DIO    C1634575   7.940   6.301   5.937
  618DIO    C1734576   7.864   6.361   5.828
  618DIO    C1834577   7.933   6.381   5.701
  618DIO    C1934578   8.065   6.324   5.678
  618DIO     F634579   8.127   6.359   5.563
  618DIO    C2034580   7.724   6.412   5.848
  618DIO     O334581   7.654   6.347   5.955
  618DIO    C2134582   7.610   6.216   5.921
  618DIO    C2234583   7.521   6.218   5.797
  618DIO    C2334584   7.602   6.286   5.686
  618DIO     O434585   7.646   6.415   5.728
  618DIO    C2434586   7.389   6.294   5.819
  618DIO    C2534587   7.298   6.239   5.930
  618DIO    C2634588   7.259   6.093   5.911
  618DIO     H134589   8.980   6.341   5.742
  618DIO     H234590   8.939   5.931   5.904
  618DIO     H334591   8.762   6.101   6.047
  618DIO     H434592   8.511   6.130   6.052
  618DIO     H534593   8.511   6.244   5.630
  618DIO     H634594   7.902   6.303   6.039
  618DIO     H734595   7.890   6.444   5.624
  618DIO     H834596   7.733   6.516   5.880
  618DIO     H934597   7.697   6.151   5.904
  618DIO    H1034598   7.557   6.174   6.007
  618DIO    H1134599   7.499   6.116   5.766
  618DIO    H1234600   7.541   6.299   5.596
  618DIO    H1334601   7.688   6.225   5.657
  618DIO    H1434602   7.408   6.400   5.842
  618DIO    H1534603   7.332   6.293   5.725
  618DIO    H1634604   7.345   6.252   6.028
  618DIO    H1734605   7.206   6.299   5.932
  618DIO    H1834606   7.216   6.076   5.812
  618DIO    H1934607   7.346   6.027   5.922
  618DIO    H2034608   7.186   6.064   5.986
  619DIO     F134609   9.716   4.319   5.870
  619DIO     C134610   9.639   4.416   5.922
  619DIO     C234611   9.494   4.407   5.908
  619DIO     C334612   9.406   4.513   5.961
  619DIO     C434613   9.471   4.625   6.032
  619DIO     C534614   9.615   4.632   6.045
  619DIO     F234615   9.671   4.734   6.114
  619DIO     C634616   9.699   4.527   5.991
  619DIO     F334617   9.833   4.535   6.003
  619DIO     C734618   9.259   4.506   5.947
  619DIO     C834619   9.182   4.621   5.894
  619DIO     C934620   9.037   4.615   5.880
  619DIO    C1034621   8.965   4.498   5.928
  619DIO    C1134622   9.037   4.381   5.973
  619DIO    C1234623   9.181   4.386   5.984
  619DIO     F434624   9.246   4.278   6.031
  619DIO     O134625   8.833   4.489   5.889
  619DIO    C1334626   8.738   4.431   5.974
  619DIO     O234627   8.737   4.406   6.097
  619DIO    C1434628   8.609   4.410   5.907
  619DIO    C1534629   8.543   4.517   5.830
  619DIO     F534630   8.605   4.635   5.810
  619DIO    C1634631   8.412   4.500   5.769
  619DIO    C1734632   8.336   4.377   5.789
  619DIO    C1834633   8.405   4.264   5.850
  619DIO    C1934634   8.537   4.281   5.910
  619DIO     F634635   8.599   4.169   5.952
  619DIO    C2034636   8.195   4.363   5.736
  619DIO     O334637   8.126   4.487   5.722
  619DIO    C2134638   8.082   4.540   5.847
  619DIO    C2234639   7.993   4.440   5.920
  619DIO    C2334640   8.074   4.311   5.934
  619DIO     O434641   8.118   4.265   5.807
  619DIO    C2434642   7.860   4.411   5.847
  619DIO    C2534643   7.770   4.533   5.823
  619DIO    C2634644   7.731   4.607   5.950
  619DIO     H134645   9.452   4.322   5.857
  619DIO     H234646   9.411   4.700   6.082
  619DIO     H334647   9.234   4.710   5.861
  619DIO     H434648   8.982   4.696   5.834
  619DIO     H534649   8.983   4.292   6.002
  619DIO     H634650   8.374   4.580   5.706
  619DIO     H734651   8.362   4.165   5.848
  619DIO     H834652   8.205   4.324   5.634
  619DIO     H934653   8.169   4.567   5.908
  619DIO    H1034654   8.029   4.633   5.827
  619DIO    H1134655   7.971   4.478   6.020
  619DIO    H1234656   8.013   4.232   5.979
  619DIO    H1334657   8.160   4.326   6.000
  619DIO    H1434658   7.880   4.365   5.749
  619DIO    H1534659   7.804   4.338   5.905
  619DIO    H1634660   7.817   4.602   5.753
  619DIO    H1734661   7.678   4.498   5.774
  619DIO    H1834662   7.687   4.539   6.024
  619DIO    H1934663   7.818   4.656   5.995
  619DIO    H2034664   7.658   4.684   5.927
  620DIO     F134665   9.047   8.392   4.266
  620DIO     C134666   8.969   8.423   4.372
  620DIO     C234667   8.825   8.427   4.356
  620DIO     C334668   8.736   8.463   4.469
  620DIO     C434669   8.802   8.491   4.598
  620DIO     C534670   8.946   8.486   4.612
  620DIO     F234671   9.001   8.509   4.733
  620DIO     C634672   9.030   8.452   4.500
  620DIO     F334673   9.164   8.449   4.514
  620DIO     C734674   8.590   8.469   4.454
  620DIO     C834675   8.513   8.587   4.499
  620DIO     C934676   8.368   8.592   4.485
  620DIO    C1034677   8.295   8.477   4.435
  620DIO    C1134678   8.368   8.363   4.382
  620DIO    C1234679   8.512   8.358   4.394
  620DIO     F434680   8.577   8.249   4.349
  620DIO     O134681   8.163   8.498   4.402
  620DIO    C1334682   8.069   8.397   4.419
  620DIO     O234683   8.068   8.292   4.487
  620DIO    C1434684   7.940   8.430   4.357
  620DIO    C1534685   7.873   8.560   4.379
  620DIO     F534686   7.936   8.657   4.450
  620DIO    C1634687   7.743   8.592   4.325
  620DIO    C1734688   7.667   8.492   4.251
  620DIO    C1834689   7.736   8.369   4.213
  620DIO    C1934690   7.867   8.338   4.267
  620DIO     F634691   7.930   8.229   4.216
  620DIO    C2034692   7.526   8.519   4.204
  620DIO     O334693   7.456   8.616   4.283
  620DIO    C2134694   7.413   8.564   4.408
  620DIO    C2234695   7.324   8.442   4.388
  620DIO    C2334696   7.405   8.341   4.305
  620DIO     O434697   7.449   8.400   4.183
  620DIO    C2434698   7.191   8.474   4.316
  620DIO    C2534699   7.100   8.576   4.386
  620DIO    C2634700   7.062   8.537   4.528
  620DIO     H134701   8.782   8.404   4.259
  620DIO     H234702   8.741   8.508   4.687
  620DIO     H334703   8.564   8.673   4.539
  620DIO     H434704   8.313   8.682   4.510
  620DIO     H534705   8.314   8.279   4.340
  620DIO     H634706   7.704   8.693   4.338
  620DIO     H734707   7.693   8.301   4.141
  620DIO     H834708   7.536   8.565   4.104
  620DIO     H934709   7.499   8.539   4.470
  620DIO    H1034710   7.360   8.644   4.461
  620DIO    H1134711   7.301   8.397   4.485
  620DIO    H1234712   7.343   8.254   4.280
  620DIO    H1334713   7.491   8.304   4.362
  620DIO    H1434714   7.211   8.511   4.214
  620DIO    H1534715   7.135   8.381   4.304
  620DIO    H1634716   7.148   8.675   4.387
  620DIO    H1734717   7.009   8.587   4.327
  620DIO    H1834718   7.018   8.437   4.531
  620DIO    H1934719   7.148   8.539   4.595
  620DIO    H2034720   6.988   8.608   4.567
  621DIO     F134721   2.130   4.246   2.726
  621DIO     C134722   2.053   4.314   2.640
  621DIO     C234723   1.908   4.298   2.646
  621DIO     C334724   1.820   4.370   2.552
  621DIO     C434725   1.885   4.460   2.454
  621DIO     C534726   2.029   4.474   2.450
  621DIO     F234727   2.085   4.560   2.362
  621DIO     C634728   2.113   4.402   2.543
  621DIO     F334729   2.247   4.415   2.538
  621DIO     C734730   1.673   4.355   2.556
  621DIO     C834731   1.596   4.324   2.433
  621DIO     C934732   1.451   4.309   2.437
  621DIO    C1034733   1.379   4.334   2.560
  621DIO    C1134734   1.451   4.357   2.684
  621DIO    C1234735   1.595   4.370   2.680
  621DIO     F434736   1.660   4.396   2.796
  621DIO     O134737   1.247   4.295   2.562
  621DIO    C1334738   1.152   4.367   2.634
  621DIO     O234739   1.151   4.484   2.681
  621DIO    C1434740   1.023   4.298   2.643
  621DIO    C1534741   0.957   4.241   2.524
  621DIO     F534742   1.019   4.243   2.404
  621DIO    C1634743   0.826   4.179   2.529
  621DIO    C1734744   0.750   4.176   2.654
  621DIO    C1834745   0.819   4.216   2.776
  621DIO    C1934746   0.951   4.277   2.771
  621DIO     F634747   1.013   4.298   2.888
  621DIO    C2034748   0.609   4.121   2.659
  621DIO     O334749   0.540   4.130   2.534
  621DIO    C2134750   0.496   4.262   2.505
  621DIO    C2234751   0.407   4.317   2.616
  621DIO    C2334752   0.488   4.307   2.745
  621DIO     O434753   0.532   4.173   2.768
  621DIO    C2434754   0.274   4.239   2.631
  621DIO    C2534755   0.184   4.238   2.507
  621DIO    C2634756   0.145   4.376   2.458
  621DIO     H134757   1.866   4.233   2.721
  621DIO     H234758   1.825   4.523   2.389
  621DIO     H334759   1.648   4.307   2.340
  621DIO     H434760   1.396   4.278   2.349
  621DIO     H534761   1.397   4.371   2.776
  621DIO     H634762   0.788   4.131   2.440
  621DIO     H734763   0.776   4.196   2.873
  621DIO     H834764   0.619   4.014   2.679
  621DIO     H934765   0.583   4.328   2.489
  621DIO    H1034766   0.443   4.260   2.409
  621DIO    H1134767   0.385   4.422   2.597
  621DIO    H1234768   0.427   4.336   2.831
  621DIO    H1334769   0.574   4.375   2.743
  621DIO    H1434770   0.294   4.135   2.659
  621DIO    H1534771   0.218   4.283   2.714
  621DIO    H1634772   0.231   4.181   2.426
  621DIO    H1734773   0.092   4.183   2.533
  621DIO    H1834774   0.101   4.436   2.538
  621DIO    H1934775   0.232   4.430   2.417
  621DIO    H2034776   0.072   4.368   2.377
  622DIO     F134777   2.623   7.365   7.098
  622DIO     C134778   2.545   7.310   7.003
  622DIO     C234779   2.401   7.309   7.020
  622DIO     C334780   2.312   7.248   6.919
  622DIO     C434781   2.378   7.189   6.800
  622DIO     C534782   2.522   7.190   6.785
  622DIO     F234783   2.577   7.139   6.673
  622DIO     C634784   2.606   7.251   6.886
  622DIO     F334785   2.739   7.250   6.872
  622DIO     C734786   2.166   7.246   6.935
  622DIO     C834787   2.089   7.120   6.919
  622DIO     C934788   1.944   7.118   6.934
  622DIO    C1034789   1.871   7.242   6.955
  622DIO    C1134790   1.944   7.366   6.978
  622DIO    C1234791   2.088   7.367   6.966
  622DIO     F434792   2.153   7.484   6.983
  622DIO     O134793   1.739   7.230   6.992
  622DIO    C1334794   1.645   7.323   6.951
  622DIO     O234795   1.644   7.409   6.859
  622DIO    C1434796   1.515   7.307   7.019
  622DIO    C1534797   1.449   7.175   7.029
  622DIO     F534798   1.512   7.064   6.984
  622DIO    C1634799   1.318   7.157   7.089
  622DIO    C1734800   1.243   7.272   7.137
  622DIO    C1834801   1.311   7.401   7.144
  622DIO    C1934802   1.443   7.418   7.084
  622DIO     F634803   1.505   7.535   7.107
  622DIO    C2034804   1.102   7.257   7.189
  622DIO     O334805   1.032   7.144   7.136
  622DIO    C2134806   0.988   7.164   7.002
  622DIO    C2234807   0.900   7.288   6.992
  622DIO    C2334808   0.980   7.405   7.048
  622DIO     O434809   1.025   7.377   7.180
  622DIO    C2434810   0.767   7.274   7.070
  622DIO    C2534811   0.676   7.158   7.026
  622DIO    C2634812   0.638   7.162   6.879
  622DIO     H134813   2.358   7.355   7.108
  622DIO     H234814   2.317   7.151   6.718
  622DIO     H334815   2.140   7.027   6.901
  622DIO     H434816   1.889   7.025   6.931
  622DIO     H534817   1.889   7.457   6.999
  622DIO     H634818   1.280   7.056   7.101
  622DIO     H734819   1.268   7.484   7.198
  622DIO     H834820   1.112   7.237   7.297
  622DIO     H934821   1.075   7.174   6.936
  622DIO    H1034822   0.936   7.074   6.970
  622DIO    H1134823   0.877   7.308   6.887
  622DIO    H1234824   0.919   7.496   7.051
  622DIO    H1334825   1.066   7.427   6.984
  622DIO    H1434826   0.787   7.262   7.177
  622DIO    H1534827   0.710   7.367   7.059
  622DIO    H1634828   0.723   7.062   7.049
  622DIO    H1734829   0.584   7.162   7.086
  622DIO    H1834830   0.594   7.258   6.852
  622DIO    H1934831   0.724   7.144   6.815
  622DIO    H2034832   0.564   7.083   6.858
  623DIO     F134833   9.648   1.551   5.550
  623DIO     C134834   9.570   1.516   5.655
  623DIO     C234835   9.426   1.529   5.644
  623DIO     C334836   9.337   1.494   5.757
  623DIO     C434837   9.403   1.444   5.880
  623DIO     C534838   9.547   1.432   5.888
  623DIO     F234839   9.602   1.382   6.001
  623DIO     C634840   9.631   1.467   5.776
  623DIO     F334841   9.765   1.457   5.786
  623DIO     C734842   9.191   1.507   5.748
  623DIO     C834843   9.114   1.579   5.852
  623DIO     C934844   8.969   1.591   5.844
  623DIO    C1034845   8.896   1.525   5.737
  623DIO    C1134846   8.969   1.461   5.629
  623DIO    C1234847   9.113   1.450   5.636
  623DIO     F434848   9.178   1.385   5.537
  623DIO     O134849   8.764   1.561   5.722
  623DIO    C1334850   8.670   1.468   5.679
  623DIO     O234851   8.669   1.342   5.675
  623DIO    C1434852   8.541   1.530   5.646
  623DIO    C1534853   8.474   1.625   5.739
  623DIO     F534854   8.537   1.664   5.852
  623DIO    C1634855   8.344   1.682   5.712
  623DIO    C1734856   8.268   1.641   5.594
  623DIO    C1834857   8.337   1.561   5.493
  623DIO    C1934858   8.468   1.506   5.520
  623DIO     F634859   8.531   1.445   5.416
  623DIO    C2034860   8.127   1.691   5.571
  623DIO     O334861   8.057   1.725   5.691
  623DIO    C2134862   8.014   1.612   5.764
  623DIO    C2234863   7.925   1.522   5.678
  623DIO    C2334864   8.006   1.487   5.554
  623DIO     O434865   8.050   1.604   5.487
  623DIO    C2434866   7.792   1.590   5.638
  623DIO    C2534867   7.701   1.634   5.753
  623DIO    C2634868   7.663   1.521   5.848
  623DIO     H134869   9.383   1.565   5.551
  623DIO     H234870   9.342   1.407   5.962
  623DIO     H334871   9.165   1.627   5.934
  623DIO     H434872   8.914   1.650   5.916
  623DIO     H534873   8.915   1.416   5.547
  623DIO     H634874   8.305   1.757   5.780
  623DIO     H734875   8.294   1.547   5.395
  623DIO     H834876   8.137   1.784   5.515
  623DIO     H934877   8.100   1.556   5.801
  623DIO    H1034878   7.961   1.647   5.853
  623DIO    H1134879   7.902   1.430   5.733
  623DIO    H1234880   7.944   1.429   5.483
  623DIO    H1334881   8.092   1.424   5.579
  623DIO    H1434882   7.812   1.678   5.575
  623DIO    H1534883   7.736   1.520   5.575
  623DIO    H1634884   7.749   1.715   5.810
  623DIO    H1734885   7.610   1.676   5.710
  623DIO    H1834886   7.619   1.437   5.793
  623DIO    H1934887   7.749   1.485   5.904
  623DIO    H2034888   7.589   1.557   5.920
  624DIO     F134889   9.596   2.424   9.859
  624DIO     C134890   9.519   2.522   9.810
  624DIO     C234891   9.375   2.505   9.809
  624DIO     C334892   9.286   2.610   9.753
  624DIO     C434893   9.351   2.732   9.701
  624DIO     C534894   9.496   2.747   9.703
  624DIO     F234895   9.551   2.861   9.659
  624DIO     C634896   9.579   2.642   9.758
  624DIO     F334897   9.713   2.657   9.758
  624DIO     C734898   9.139   2.594   9.750
  624DIO     C834899   9.062   2.617   9.625
  624DIO     C934900   8.918   2.602   9.623
  624DIO    C1034901   8.845   2.574   9.745
  624DIO    C1134902   8.917   2.543   9.867
  624DIO    C1234903   9.062   2.556   9.869
  624DIO     F434904   9.126   2.532   9.985
  624DIO     O134905   8.713   2.537   9.731
  624DIO    C1334906   8.618   2.573   9.826
  624DIO     O234907   8.617   2.660   9.918
  624DIO    C1434908   8.489   2.506   9.806
  624DIO    C1534909   8.423   2.504   9.673
  624DIO     F534910   8.485   2.556   9.566
  624DIO    C1634911   8.292   2.445   9.652
  624DIO    C1734912   8.216   2.391   9.765
  624DIO    C1834913   8.285   2.377   9.893
  624DIO    C1934914   8.417   2.435   9.913
  624DIO     F634915   8.479   2.405  10.029
  624DIO    C2034916   8.076   2.339   9.747
  624DIO     O334917   8.006   2.399   9.637
  624DIO    C2134918   7.962   2.531   9.665
  624DIO    C2234919   7.873   2.534   9.789
  624DIO    C2334920   7.954   2.472   9.902
  624DIO     O434921   7.998   2.341   9.867
  624DIO    C2434922   7.740   2.458   9.770
  624DIO    C2534923   7.650   2.508   9.657
  624DIO    C2634924   7.611   2.654   9.669
  624DIO     H134925   9.332   2.414   9.849
  624DIO     H234926   9.291   2.816   9.668
  624DIO     H334927   9.114   2.640   9.533
  624DIO     H434928   8.862   2.610   9.530
  624DIO     H534929   8.863   2.517   9.957
  624DIO     H634930   8.254   2.439   9.551
  624DIO     H734931   8.242   2.318   9.973
  624DIO     H834932   8.085   2.233   9.720
  624DIO     H934933   8.049   2.597   9.678
  624DIO    H1034934   7.909   2.569   9.577
  624DIO    H1134935   7.851   2.638   9.815
  624DIO    H1234936   7.893   2.463   9.993
  624DIO    H1334937   8.040   2.535   9.928
  624DIO    H1434938   7.760   2.351   9.753
  624DIO    H1534939   7.684   2.463   9.864
  624DIO    H1634940   7.697   2.490   9.560
  624DIO    H1734941   7.558   2.447   9.657
  624DIO    H1834942   7.567   2.676   9.767
  624DIO    H1934943   7.698   2.720   9.655
  624DIO    H2034944   7.538   2.680   9.592
  625DIO     F134945   6.856   5.599   2.743
  625DIO     C134946   6.778   5.540   2.836
  625DIO     C234947   6.634   5.555   2.828
  625DIO     C334948   6.545   5.494   2.930
  625DIO     C434949   6.611   5.415   3.037
  625DIO     C534950   6.755   5.402   3.042
  625DIO     F234951   6.810   5.326   3.139
  625DIO     C634952   6.839   5.463   2.942
  625DIO     F334953   6.973   5.451   2.949
  625DIO     C734954   6.399   5.509   2.924
  625DIO     C834955   6.322   5.553   3.043
  625DIO     C934956   6.177   5.567   3.038
  625DIO    C1034957   6.104   5.529   2.918
  625DIO    C1134958   6.177   5.492   2.797
  625DIO    C1234959   6.321   5.480   2.802
  625DIO     F434960   6.386   5.441   2.691
  625DIO     O134961   5.972   5.567   2.912
  625DIO    C1334962   5.878   5.488   2.848
  625DIO     O234963   5.877   5.366   2.814
  625DIO    C1434964   5.749   5.555   2.831
  625DIO    C1534965   5.682   5.625   2.944
  625DIO     F534966   5.745   5.636   3.063
  625DIO    C1634967   5.552   5.687   2.931
  625DIO    C1734968   5.476   5.676   2.807
  625DIO    C1834969   5.545   5.623   2.690
  625DIO    C1934970   5.676   5.562   2.702
  625DIO     F634971   5.739   5.528   2.588
  625DIO    C2034972   5.335   5.729   2.796
  625DIO     O334973   5.265   5.734   2.921
  625DIO    C2134974   5.222   5.606   2.965
  625DIO    C2234975   5.133   5.540   2.860
  625DIO    C2334976   5.214   5.536   2.731
  625DIO     O434977   5.258   5.666   2.694
  625DIO    C2434978   5.000   5.616   2.837
  625DIO    C2534979   4.909   5.631   2.960
  625DIO    C2634980   4.871   5.498   3.024
  625DIO     H134981   6.591   5.612   2.747
  625DIO     H234982   6.550   5.360   3.108
  625DIO     H334983   6.373   5.580   3.134
  625DIO     H434984   6.122   5.607   3.121
  625DIO     H534985   6.123   5.469   2.707
  625DIO     H634986   5.513   5.744   3.015
  625DIO     H734987   5.502   5.632   2.591
  625DIO     H834988   5.345   5.834   2.765
  625DIO     H934989   5.308   5.543   2.987
  625DIO    H1034990   5.169   5.619   3.060
  625DIO    H1134991   5.110   5.437   2.891
  625DIO    H1234992   5.152   5.497   2.648
  625DIO    H1334993   5.300   5.468   2.741
  625DIO    H1434994   5.020   5.716   2.797
  625DIO    H1534995   4.944   5.563   2.759
  625DIO    H1634996   4.957   5.695   3.034
  625DIO    H1734997   4.818   5.682   2.928
  625DIO    H1834998   4.827   5.430   2.951
  625DIO    H1934999   4.957   5.450   3.070
  625DIO    H2035000   4.797   5.516   3.103
  626DIO     F135001   8.831   7.303   6.513
  626DIO     C135002   8.754   7.204   6.465
  626DIO     C235003   8.610   7.213   6.479
  626DIO     C335004   8.521   7.105   6.430
  626DIO     C435005   8.586   6.990   6.365
  626DIO     C535006   8.731   6.983   6.352
  626DIO     F235007   8.786   6.878   6.288
  626DIO     C635008   8.814   7.089   6.401
  626DIO     F335009   8.948   7.081   6.390
  626DIO     C735010   8.374   7.113   6.444
  626DIO     C835011   8.297   7.000   6.502
  626DIO     C935012   8.153   7.007   6.516
  626DIO    C1035013   8.080   7.121   6.463
  626DIO    C1135014   8.153   7.237   6.413
  626DIO    C1235015   8.297   7.231   6.402
  626DIO     F435016   8.362   7.337   6.350
  626DIO     O135017   7.948   7.132   6.501
  626DIO    C1335018   7.853   7.186   6.415
  626DIO     O235019   7.852   7.206   6.290
  626DIO    C1435020   7.724   7.210   6.480
  626DIO    C1535021   7.658   7.107   6.562
  626DIO     F535022   7.721   6.990   6.587
  626DIO    C1635023   7.527   7.126   6.622
  626DIO    C1735024   7.451   7.248   6.597
  626DIO    C1835025   7.520   7.358   6.530
  626DIO    C1935026   7.652   7.339   6.472
  626DIO     F635027   7.714   7.449   6.425
  626DIO    C2035028   7.311   7.265   6.649
  626DIO     O335029   7.241   7.142   6.668
  626DIO    C2135030   7.197   7.083   6.546
  626DIO    C2235031   7.108   7.180   6.468
  626DIO    C2335032   7.189   7.308   6.449
  626DIO     O435033   7.233   7.360   6.574
  626DIO    C2435034   6.976   7.212   6.540
  626DIO    C2535035   6.885   7.092   6.569
  626DIO    C2635036   6.846   7.012   6.446
  626DIO     H135037   8.567   7.301   6.527
  626DIO     H235038   8.526   6.913   6.318
  626DIO     H335039   8.349   6.913   6.539
  626DIO     H435040   8.098   6.928   6.565
  626DIO     H535041   8.098   7.324   6.380
  626DIO     H635042   7.489   7.049   6.688
  626DIO     H735043   7.477   7.458   6.529
  626DIO     H835044   7.320   7.309   6.749
  626DIO     H935045   7.284   7.054   6.486
  626DIO    H1035046   7.144   6.991   6.570
  626DIO    H1135047   7.086   7.137   6.370
  626DIO    H1235048   7.128   7.385   6.401
  626DIO    H1335049   7.275   7.291   6.383
  626DIO    H1435050   6.995   7.263   6.636
  626DIO    H1535051   6.919   7.283   6.479
  626DIO    H1635052   6.932   7.025   6.643
  626DIO    H1735053   6.793   7.129   6.617
  626DIO    H1835054   6.803   7.077   6.369
  626DIO    H1935055   6.933   6.961   6.402
  626DIO    H2035056   6.773   6.935   6.472
  627DIO     F135057   9.955   8.136   2.487
  627DIO     C135058   9.877   8.229   2.547
  627DIO     C235059   9.733   8.221   2.531
  627DIO     C335060   9.644   8.322   2.593
  627DIO     C435061   9.710   8.429   2.672
  627DIO     C535062   9.854   8.435   2.685
  627DIO     F235063   9.910   8.531   2.761
  627DIO     C635064   9.938   8.335   2.624
  627DIO     F335065  10.072   8.341   2.636
  627DIO     C735066   9.498   8.317   2.578
  627DIO     C835067   9.421   8.435   2.534
  627DIO     C935068   9.276   8.430   2.520
  627DIO    C1035069   9.204   8.311   2.558
  627DIO    C1135070   9.276   8.190   2.594
  627DIO    C1235071   9.420   8.194   2.606
  627DIO     F435072   9.485   8.083   2.645
  627DIO     O135073   9.071   8.304   2.519
  627DIO    C1335074   8.977   8.240   2.599
  627DIO     O235075   8.976   8.206   2.720
  627DIO    C1435076   8.848   8.224   2.531
  627DIO    C1535077   8.781   8.337   2.462
  627DIO     F535078   8.844   8.456   2.451
  627DIO    C1635079   8.651   8.325   2.400
  627DIO    C1735080   8.575   8.200   2.411
  627DIO    C1835081   8.644   8.083   2.463
  627DIO    C1935082   8.775   8.095   2.524
  627DIO     F635083   8.838   7.980   2.557
  627DIO    C2035084   8.434   8.190   2.357
  627DIO     O335085   8.364   8.315   2.352
  627DIO    C2135086   8.321   8.358   2.481
  627DIO    C2235087   8.232   8.253   2.546
  627DIO    C2335088   8.313   8.123   2.550
  627DIO     O435089   8.357   8.087   2.420
  627DIO    C2435090   8.099   8.230   2.471
  627DIO    C2535091   8.008   8.353   2.456
  627DIO    C2635092   7.970   8.417   2.589
  627DIO     H135093   9.691   8.140   2.474
  627DIO     H235094   9.649   8.500   2.727
  627DIO     H335095   9.472   8.527   2.507
  627DIO     H435096   9.221   8.514   2.480
  627DIO     H535097   9.222   8.099   2.617
  627DIO     H635098   8.613   8.409   2.343
  627DIO     H735099   8.601   7.984   2.453
  627DIO     H835100   8.444   8.158   2.252
  627DIO     H935101   8.407   8.380   2.544
  627DIO    H1035102   8.268   8.453   2.468
  627DIO    H1135103   8.209   8.283   2.649
  627DIO    H1235104   8.252   8.041   2.589
  627DIO    H1335105   8.399   8.133   2.618
  627DIO    H1435106   8.119   8.191   2.370
  627DIO    H1535107   8.043   8.152   2.523
  627DIO    H1635108   8.056   8.427   2.392
  627DIO    H1735109   7.917   8.322   2.405
  627DIO    H1835110   7.926   8.343   2.657
  627DIO    H1935111   8.057   8.462   2.638
  627DIO    H2035112   7.896   8.496   2.572
  628DIO     F135113   3.259   6.906   6.543
  628DIO     C135114   3.181   6.797   6.560
  628DIO     C235115   3.037   6.813   6.566
  628DIO     C335116   2.948   6.697   6.587
  628DIO     C435117   3.014   6.564   6.598
  628DIO     C535118   3.158   6.551   6.591
  628DIO     F235119   3.213   6.428   6.598
  628DIO     C635120   3.242   6.667   6.572
  628DIO     F335121   3.375   6.654   6.567
  628DIO     C735122   2.802   6.711   6.594
  628DIO     C835123   2.725   6.650   6.705
  628DIO     C935124   2.580   6.664   6.713
  628DIO    C1035125   2.507   6.728   6.605
  628DIO    C1135126   2.580   6.795   6.498
  628DIO    C1235127   2.724   6.784   6.493
  628DIO     F435128   2.789   6.842   6.390
  628DIO     O135129   2.375   6.758   6.630
  628DIO    C1335130   2.281   6.754   6.528
  628DIO     O235131   2.280   6.700   6.414
  628DIO    C1435132   2.151   6.811   6.568
  628DIO    C1535133   2.085   6.772   6.695
  628DIO     F535134   2.148   6.690   6.781
  628DIO    C1635135   1.954   6.822   6.733
  628DIO    C1735136   1.879   6.908   6.643
  628DIO    C1835137   1.947   6.962   6.526
  628DIO    C1935138   2.079   6.913   6.489
  628DIO     F635139   2.141   6.977   6.388
  628DIO    C2035140   1.738   6.952   6.677
  628DIO     O335141   1.668   6.861   6.762
  628DIO    C2135142   1.624   6.744   6.695
  628DIO    C2235143   1.536   6.779   6.576
  628DIO    C2335144   1.616   6.874   6.487
  628DIO     O435145   1.661   6.987   6.561
  628DIO    C2435146   1.403   6.846   6.617
  628DIO    C2535147   1.312   6.764   6.709
  628DIO    C2635148   1.274   6.628   6.652
  628DIO     H135149   2.994   6.912   6.555
  628DIO     H235150   2.953   6.474   6.603
  628DIO     H335151   2.776   6.599   6.786
  628DIO     H435152   2.525   6.627   6.798
  628DIO     H535153   2.525   6.848   6.421
  628DIO     H635154   1.916   6.796   6.831
  628DIO     H735155   1.904   7.043   6.468
  628DIO     H835156   1.748   7.044   6.735
  628DIO     H935157   1.711   6.686   6.662
  628DIO    H1035158   1.572   6.681   6.767
  628DIO    H1135159   1.513   6.689   6.519
  628DIO    H1235160   1.555   6.911   6.404
  628DIO    H1335161   1.702   6.823   6.443
  628DIO    H1435162   1.423   6.942   6.667
  628DIO    H1535163   1.346   6.871   6.526
  628DIO    H1635164   1.359   6.750   6.807
  628DIO    H1735165   1.220   6.821   6.728
  628DIO    H1835166   1.230   6.638   6.552
  628DIO    H1935167   1.360   6.562   6.645
  628DIO    H2035168   1.200   6.580   6.717
  629DIO     F135169   8.001   6.451   6.325
  629DIO     C135170   7.923   6.561   6.330
  629DIO     C235171   7.779   6.547   6.321
  629DIO     C335172   7.690   6.665   6.324
  629DIO     C435173   7.756   6.797   6.339
  629DIO     C535174   7.900   6.809   6.348
  629DIO     F235175   7.956   6.930   6.365
  629DIO     C635176   7.984   6.691   6.344
  629DIO     F335177   8.118   6.703   6.351
  629DIO     C735178   7.544   6.653   6.313
  629DIO     C835179   7.467   6.734   6.216
  629DIO     C935180   7.322   6.722   6.206
  629DIO    C1035181   7.250   6.638   6.299
  629DIO    C1135182   7.322   6.551   6.391
  629DIO    C1235183   7.466   6.561   6.398
  629DIO     F435184   7.531   6.484   6.488
  629DIO     O135185   7.117   6.613   6.269
  629DIO    C1335186   7.023   6.597   6.370
  629DIO     O235187   7.022   6.628   6.492
  629DIO    C1435188   6.894   6.549   6.319
  629DIO    C1535189   6.828   6.612   6.203
  629DIO     F535190   6.890   6.710   6.134
  629DIO    C1635191   6.697   6.571   6.155
  629DIO    C1735192   6.621   6.469   6.226
  629DIO    C1835193   6.690   6.393   6.330
  629DIO    C1935194   6.821   6.434   6.377
  629DIO     F635195   6.884   6.351   6.463
  629DIO    C2035196   6.480   6.433   6.185
  629DIO     O335197   6.411   6.539   6.119
  629DIO    C2135198   6.367   6.640   6.208
  629DIO    C2235199   6.278   6.582   6.318
  629DIO    C2335200   6.359   6.472   6.386
  629DIO     O435201   6.403   6.375   6.291
  629DIO    C2435202   6.145   6.524   6.264
  629DIO    C2535203   6.055   6.623   6.190
  629DIO    C2635204   6.016   6.745   6.273
  629DIO     H135205   7.737   6.448   6.312
  629DIO     H235206   7.695   6.886   6.351
  629DIO     H335207   7.518   6.800   6.147
  629DIO     H435208   7.267   6.775   6.130
  629DIO     H535209   7.268   6.484   6.456
  629DIO     H635210   6.659   6.615   6.064
  629DIO     H735211   6.647   6.303   6.371
  629DIO     H835212   6.490   6.353   6.110
  629DIO     H935213   6.454   6.691   6.252
  629DIO    H1035214   6.314   6.716   6.150
  629DIO    H1135215   6.255   6.660   6.392
  629DIO    H1235216   6.298   6.419   6.460
  629DIO    H1335217   6.445   6.513   6.439
  629DIO    H1435218   6.165   6.440   6.196
  629DIO    H1535219   6.089   6.483   6.348
  629DIO    H1635220   6.102   6.656   6.097
  629DIO    H1735221   5.963   6.571   6.161
  629DIO    H1835222   5.972   6.716   6.368
  629DIO    H1935223   6.103   6.809   6.292
  629DIO    H2035224   5.942   6.805   6.219
  630DIO     F135225   7.963   3.998   5.942
  630DIO     C135226   7.885   3.894   5.980
  630DIO     C235227   7.741   3.911   5.983
  630DIO     C335228   7.652   3.801   6.026
  630DIO     C435229   7.718   3.673   6.063
  630DIO     C535230   7.862   3.659   6.059
  630DIO     F235231   7.917   3.540   6.089
  630DIO     C635232   7.946   3.769   6.017
  630DIO     F335233   8.079   3.755   6.015
  630DIO     C735234   7.506   3.816   6.031
  630DIO     C835235   7.429   3.779   6.151
  630DIO     C935236   7.284   3.793   6.156
  630DIO    C1035237   7.211   3.835   6.038
  630DIO    C1135238   7.284   3.880   5.920
  630DIO    C1235239   7.428   3.868   5.917
  630DIO     F435240   7.493   3.905   5.804
  630DIO     O135241   7.079   3.870   6.056
  630DIO    C1335242   6.985   3.846   5.957
  630DIO     O235243   6.984   3.771   5.856
  630DIO    C1435244   6.855   3.910   5.985
  630DIO    C1535245   6.789   3.896   6.117
  630DIO     F535246   6.852   3.832   6.218
  630DIO    C1635247   6.658   3.952   6.145
  630DIO    C1735248   6.583   4.019   6.040
  630DIO    C1835249   6.651   4.049   5.915
  630DIO    C1935250   6.783   3.994   5.888
  630DIO     F635251   6.845   4.037   5.776
  630DIO    C2035252   6.442   4.069   6.064
  630DIO     O335253   6.372   3.996   6.166
  630DIO    C2135254   6.328   3.868   6.123
  630DIO    C2235255   6.240   3.880   5.999
  630DIO    C2335256   6.320   3.955   5.894
  630DIO     O435257   6.365   4.081   5.944
  630DIO    C2435258   6.107   3.954   6.027
  630DIO    C2535259   6.016   3.891   6.133
  630DIO    C2635260   5.978   3.747   6.104
  630DIO     H135261   7.698   4.006   5.953
  630DIO     H235262   7.657   3.586   6.085
  630DIO     H335263   7.480   3.744   6.240
  630DIO     H435264   7.229   3.774   6.247
  630DIO     H535265   7.229   3.917   5.834
  630DIO     H635266   6.620   3.946   6.246
  630DIO     H735267   6.608   4.117   5.842
  630DIO     H835268   6.452   4.171   6.103
  630DIO     H935269   6.415   3.805   6.102
  630DIO    H1035270   6.276   3.821   6.206
  630DIO    H1135271   6.217   3.780   5.961
  630DIO    H1235272   6.259   3.975   5.805
  630DIO    H1335273   6.406   3.896   5.860
  630DIO    H1435274   6.127   4.057   6.057
  630DIO    H1535275   6.050   3.960   5.933
  630DIO    H1635276   6.063   3.896   6.232
  630DIO    H1735277   5.924   3.951   6.140
  630DIO    H1835278   5.934   3.737   6.004
  630DIO    H1935279   6.064   3.680   6.110
  630DIO    H2035280   5.904   3.712   6.177
  631DIO     F135281   2.130   5.925   1.877
  631DIO     C135282   2.053   5.953   1.984
  631DIO     C235283   1.908   5.958   1.967
  631DIO     C335284   1.820   5.991   2.081
  631DIO     C435285   1.885   6.016   2.211
  631DIO     C535286   2.029   6.011   2.225
  631DIO     F235287   2.085   6.031   2.346
  631DIO     C635288   2.113   5.979   2.112
  631DIO     F335289   2.247   5.976   2.126
  631DIO     C735290   1.673   5.997   2.066
  631DIO     C835291   1.596   6.114   2.114
  631DIO     C935292   1.451   6.120   2.100
  631DIO    C1035293   1.379   6.006   2.047
  631DIO    C1135294   1.451   5.893   1.992
  631DIO    C1235295   1.595   5.888   2.004
  631DIO     F435296   1.660   5.780   1.957
  631DIO     O135297   1.247   6.028   2.015
  631DIO    C1335298   1.152   5.926   2.030
  631DIO     O235299   1.151   5.819   2.096
  631DIO    C1435300   1.023   5.960   1.969
  631DIO    C1535301   0.957   6.090   1.994
  631DIO     F535302   1.019   6.185   2.067
  631DIO    C1635303   0.826   6.123   1.940
  631DIO    C1735304   0.750   6.024   1.864
  631DIO    C1835305   0.819   5.902   1.824
  631DIO    C1935306   0.951   5.870   1.876
  631DIO     F635307   1.013   5.763   1.823
  631DIO    C2035308   0.609   6.053   1.817
  631DIO     O335309   0.540   6.148   1.899
  631DIO    C2135310   0.496   6.093   2.022
  631DIO    C2235311   0.407   5.971   2.000
  631DIO    C2335312   0.488   5.873   1.915
  631DIO     O435313   0.532   5.935   1.795
  631DIO    C2435314   0.274   6.006   1.929
  631DIO    C2535315   0.184   6.106   2.001
  631DIO    C2635316   0.145   6.064   2.142
  631DIO     H135317   1.866   5.937   1.870
  631DIO     H235318   1.825   6.031   2.300
  631DIO     H335319   1.648   6.199   2.156
  631DIO     H435320   1.396   6.209   2.128
  631DIO     H535321   1.397   5.810   1.948
  631DIO     H635322   0.788   6.223   1.955
  631DIO     H735323   0.776   5.836   1.750
  631DIO     H835324   0.619   6.101   1.719
  631DIO     H935325   0.583   6.067   2.084
  631DIO    H1035326   0.443   6.172   2.077
  631DIO    H1135327   0.385   5.924   2.096
  631DIO    H1235328   0.427   5.786   1.888
  631DIO    H1335329   0.574   5.835   1.971
  631DIO    H1435330   0.294   6.044   1.828
  631DIO    H1535331   0.218   5.912   1.915
  631DIO    H1635332   0.231   6.205   2.004
  631DIO    H1735333   0.092   6.118   1.942
  631DIO    H1835334   0.101   5.963   2.142
  631DIO    H1935335   0.232   6.064   2.209
  631DIO    H2035336   0.072   6.133   2.183
  632DIO     F135337   9.941   1.632   4.435
  632DIO     C135338   9.863   1.741   4.428
  632DIO     C235339   9.719   1.726   4.420
  632DIO     C335340   9.630   1.844   4.410
  632DIO     C435341   9.696   1.977   4.411
  632DIO     C535342   9.840   1.990   4.419
  632DIO     F235343   9.895   2.112   4.424
  632DIO     C635344   9.924   1.872   4.428
  632DIO     F335345  10.057   1.885   4.434
  632DIO     C735346   9.484   1.831   4.401
  632DIO     C835347   9.407   1.901   4.296
  632DIO     C935348   9.262   1.889   4.288
  632DIO    C1035349   9.189   1.814   4.389
  632DIO    C1135350   9.262   1.738   4.489
  632DIO    C1235351   9.406   1.749   4.496
  632DIO     F435352   9.471   1.681   4.593
  632DIO     O135353   9.057   1.787   4.361
  632DIO    C1335354   8.963   1.781   4.463
  632DIO     O235355   8.962   1.825   4.582
  632DIO    C1435356   8.833   1.728   4.418
  632DIO    C1535357   8.767   1.779   4.296
  632DIO     F535358   8.830   1.869   4.217
  632DIO    C1635359   8.636   1.733   4.253
  632DIO    C1735360   8.561   1.639   4.335
  632DIO    C1835361   8.629   1.575   4.446
  632DIO    C1935362   8.761   1.620   4.488
  632DIO     F635363   8.823   1.547   4.583
  632DIO    C2035364   8.420   1.598   4.297
  632DIO     O335365   8.350   1.697   4.220
  632DIO    C2135366   8.306   1.807   4.298
  632DIO    C2235367   8.218   1.761   4.413
  632DIO    C2335368   8.298   1.658   4.493
  632DIO     O435369   8.343   1.552   4.409
  632DIO    C2435370   8.085   1.698   4.366
  632DIO    C2535371   7.994   1.789   4.282
  632DIO    C2635372   7.956   1.918   4.351
  632DIO     H135373   9.676   1.627   4.422
  632DIO     H235374   9.635   2.067   4.414
  632DIO     H335375   9.458   1.959   4.221
  632DIO     H435376   9.207   1.933   4.206
  632DIO     H535377   9.207   1.678   4.561
  632DIO     H635378   8.598   1.767   4.158
  632DIO     H735379   8.586   1.489   4.496
  632DIO     H835380   8.430   1.511   4.231
  632DIO     H935381   8.393   1.862   4.337
  632DIO    H1035382   8.254   1.876   4.232
  632DIO    H1135383   8.195   1.846   4.479
  632DIO    H1235384   8.237   1.614   4.573
  632DIO    H1335385   8.384   1.706   4.542
  632DIO    H1435386   8.105   1.607   4.308
  632DIO    H1535387   8.028   1.666   4.454
  632DIO    H1635388   8.041   1.811   4.186
  632DIO    H1735389   7.902   1.733   4.258
  632DIO    H1835390   7.912   1.899   4.450
  632DIO    H1935391   8.042   1.984   4.364
  632DIO    H2035392   7.882   1.972   4.291
  633DIO     F135393   4.690   0.925   7.900
  633DIO     C135394   4.613   0.861   7.811
  633DIO     C235395   4.469   0.863   7.827
  633DIO     C335396   4.380   0.792   7.732
  633DIO     C435397   4.445   0.723   7.619
  633DIO     C535398   4.590   0.723   7.604
  633DIO     F235399   4.645   0.663   7.497
  633DIO     C635400   4.673   0.792   7.699
  633DIO     F335401   4.807   0.791   7.685
  633DIO     C735402   4.233   0.792   7.748
  633DIO     C835403   4.156   0.665   7.744
  633DIO     C935404   4.012   0.665   7.759
  633DIO    C1035405   3.939   0.790   7.769
  633DIO    C1135406   4.011   0.915   7.781
  633DIO    C1235407   4.156   0.915   7.769
  633DIO     F435408   4.220   1.033   7.775
  633DIO     O135409   3.807   0.781   7.807
  633DIO    C1335410   3.712   0.871   7.758
  633DIO     O235411   3.711   0.948   7.659
  633DIO    C1435412   3.583   0.860   7.827
  633DIO    C1535413   3.517   0.729   7.848
  633DIO     F535414   3.579   0.615   7.813
  633DIO    C1635415   3.386   0.717   7.910
  633DIO    C1735416   3.310   0.836   7.947
  633DIO    C1835417   3.379   0.964   7.943
  633DIO    C1935418   3.511   0.976   7.882
  633DIO     F635419   3.573   1.095   7.895
  633DIO    C2035420   3.170   0.825   8.001
  633DIO     O335421   3.100   0.708   7.958
  633DIO    C2135422   3.056   0.717   7.822
  633DIO    C2235423   2.967   0.839   7.802
  633DIO    C2335424   3.048   0.960   7.847
  633DIO     O435425   3.092   0.944   7.981
  633DIO    C2435426   2.834   0.831   7.880
  633DIO    C2535427   2.744   0.712   7.847
  633DIO    C2635428   2.705   0.703   7.700
  633DIO     H135429   4.426   0.916   7.911
  633DIO     H235430   4.385   0.679   7.540
  633DIO     H335431   4.208   0.571   7.734
  633DIO     H435432   3.956   0.572   7.764
  633DIO     H535433   3.957   1.008   7.794
  633DIO     H635434   3.348   0.618   7.930
  633DIO     H735435   3.336   1.052   7.990
  633DIO     H835436   3.179   0.814   8.110
  633DIO     H935437   3.143   0.720   7.756
  633DIO    H1035438   3.003   0.624   7.798
  633DIO    H1135439   2.945   0.850   7.695
  633DIO    H1235440   2.987   1.051   7.843
  633DIO    H1335441   3.134   0.977   7.781
  633DIO    H1435442   2.854   0.829   7.988
  633DIO    H1535443   2.778   0.923   7.861
  633DIO    H1635444   2.791   0.619   7.878
  633DIO    H1735445   2.652   0.721   7.907
  633DIO    H1835446   2.661   0.797   7.665
  633DIO    H1935447   2.792   0.680   7.638
  633DIO    H2035448   2.632   0.624   7.686
  634DIO     F135449   3.534   9.821   4.723
  634DIO     C135450   3.456   9.820   4.613
  634DIO     C235451   3.312   9.812   4.628
  634DIO     C335452   3.223   9.808   4.509
  634DIO     C435453   3.289   9.815   4.377
  634DIO     C535454   3.433   9.824   4.365
  634DIO     F235455   3.488   9.835   4.242
  634DIO     C635456   3.517   9.827   4.482
  634DIO     F335457   3.650   9.833   4.470
  634DIO     C735458   3.077   9.798   4.522
  634DIO     C835459   3.000   9.697   4.447
  634DIO     C935460   2.855   9.688   4.459
  634DIO    C1035461   2.782   9.785   4.538
  634DIO    C1135462   2.855   9.881   4.620
  634DIO    C1235463   2.999   9.888   4.609
  634DIO     F435464   3.064   9.982   4.682
  634DIO     O135465   2.650   9.756   4.564
  634DIO    C1335466   2.556   9.858   4.575
  634DIO     O235467   2.555   9.978   4.538
  634DIO    C1435468   2.426   9.810   4.626
  634DIO    C1535469   2.360   9.690   4.569
  634DIO     F535470   2.423   9.616   4.475
  634DIO    C1635471   2.229   9.645   4.613
  634DIO    C1735472   2.154   9.722   4.711
  634DIO    C1835473   2.222   9.830   4.781
  634DIO    C1935474   2.354   9.874   4.738
  634DIO     F635475   2.416   9.965   4.816
  634DIO    C2035476   2.013   9.682   4.749
  634DIO     O335477   1.943   9.610   4.647
  634DIO    C2135478   1.899   9.694   4.541
  634DIO    C2235479   1.811   9.807   4.593
  634DIO    C2335480   1.891   9.881   4.699
  634DIO     O435481   1.936   9.791   4.801
  634DIO    C2435482   1.678   9.756   4.653
  634DIO    C2535483   1.587   9.677   4.559
  634DIO    C2635484   1.549   9.753   4.433
  634DIO     H135485   3.269   9.808   4.727
  634DIO     H235486   3.228   9.823   4.287
  634DIO     H335487   3.051   9.625   4.385
  634DIO     H435488   2.800   9.608   4.410
  634DIO     H535489   2.800   9.950   4.683
  634DIO     H635490   2.191   9.551   4.573
  634DIO     H735491   2.179   9.875   4.869
  634DIO     H835492   2.023   9.612   4.833
  634DIO     H935493   1.986   9.735   4.488
  634DIO    H1035494   1.847   9.632   4.468
  634DIO    H1135495   1.788   9.876   4.511
  634DIO    H1235496   1.830   9.958   4.747
  634DIO    H1335497   1.977   9.932   4.655
  634DIO    H1435498   1.698   9.693   4.741
  634DIO    H1535499   1.621   9.842   4.690
  634DIO    H1635500   1.634   9.582   4.531
  634DIO    H1735501   1.495   9.650   4.613
  634DIO    H1835502   1.505   9.850   4.457
  634DIO    H1935503   1.635   9.769   4.368
  634DIO    H2035504   1.475   9.695   4.375
  635DIO     F135505   3.720   0.283   7.888
  635DIO     C135506   3.642   0.251   7.782
  635DIO     C235507   3.498   0.247   7.799
  635DIO     C335508   3.409   0.210   7.686
  635DIO     C435509   3.475   0.180   7.557
  635DIO     C535510   3.619   0.185   7.543
  635DIO     F235511   3.675   0.162   7.422
  635DIO     C635512   3.703   0.221   7.655
  635DIO     F335513   3.837   0.224   7.641
  635DIO     C735514   3.263   0.204   7.701
  635DIO     C835515   3.186   0.086   7.657
  635DIO     C935516   3.041   0.081   7.671
  635DIO    C1035517   2.969   0.196   7.720
  635DIO    C1135518   3.041   0.311   7.772
  635DIO    C1235519   3.185   0.315   7.760
  635DIO     F435520   3.250   0.425   7.803
  635DIO     O135521   2.836   0.176   7.754
  635DIO    C1335522   2.742   0.276   7.735
  635DIO     O235523   2.741   0.381   7.666
  635DIO    C1435524   2.613   0.244   7.797
  635DIO    C1535525   2.546   0.114   7.776
  635DIO     F535526   2.609   0.016   7.707
  635DIO    C1635527   2.416   0.083   7.831
  635DIO    C1735528   2.340   0.184   7.904
  635DIO    C1835529   2.409   0.307   7.941
  635DIO    C1935530   2.540   0.337   7.887
  635DIO     F635531   2.603   0.446   7.937
  635DIO    C2035532   2.199   0.157   7.952
  635DIO     O335533   2.129   0.059   7.874
  635DIO    C2135534   2.086   0.110   7.748
  635DIO    C2235535   1.997   0.232   7.767
  635DIO    C2335536   2.078   0.333   7.848
  635DIO     O435537   2.122   0.276   7.971
  635DIO    C2435538   1.864   0.200   7.839
  635DIO    C2535539   1.773   0.098   7.770
  635DIO    C2635540   1.735   0.136   7.628
  635DIO     H135541   3.456   0.271   7.896
  635DIO     H235542   3.414   0.163   7.469
  635DIO     H335543   3.237  -0.001   7.618
  635DIO     H435544   2.986  -0.009   7.647
  635DIO     H535545   2.987   0.395   7.813
  635DIO     H635546   2.378  -0.018   7.819
  635DIO     H735547   2.366   0.376   8.012
  635DIO     H835548   2.209   0.112   8.052
  635DIO     H935549   2.172   0.134   7.686
  635DIO    H1035550   2.033   0.029   7.696
  635DIO    H1135551   1.974   0.276   7.669
  635DIO    H1235552   2.017   0.421   7.873
  635DIO    H1335553   2.164   0.370   7.791
  635DIO    H1435554   1.884   0.165   7.941
  635DIO    H1535555   1.808   0.294   7.850
  635DIO    H1635556   1.821  -0.001   7.770
  635DIO    H1735557   1.682   0.088   7.830
  635DIO    H1835558   1.691   0.236   7.624
  635DIO    H1935559   1.822   0.133   7.561
  635DIO    H2035560   1.661   0.065   7.589
  636DIO     F135561   4.600   0.691   9.187
  636DIO     C135562   4.522   0.758   9.100
  636DIO     C235563   4.378   0.742   9.106
  636DIO     C335564   4.289   0.812   9.010
  636DIO     C435565   4.355   0.899   8.910
  636DIO     C535566   4.499   0.913   8.906
  636DIO     F235567   4.554   0.997   8.816
  636DIO     C635568   4.583   0.843   9.000
  636DIO     F335569   4.717   0.856   8.995
  636DIO     C735570   4.143   0.796   9.014
  636DIO     C835571   4.066   0.762   8.893
  636DIO     C935572   3.921   0.748   8.897
  636DIO    C1035573   3.848   0.776   9.019
  636DIO    C1135574   3.921   0.802   9.142
  636DIO    C1235575   4.065   0.814   9.139
  636DIO     F435576   4.130   0.843   9.253
  636DIO     O135577   3.716   0.737   9.022
  636DIO    C1335578   3.622   0.811   9.093
  636DIO     O235579   3.621   0.929   9.137
  636DIO    C1435580   3.493   0.742   9.103
  636DIO    C1535581   3.426   0.682   8.985
  636DIO     F535582   3.489   0.681   8.865
  636DIO    C1635583   3.296   0.620   8.992
  636DIO    C1735584   3.220   0.620   9.117
  636DIO    C1835585   3.289   0.662   9.238
  636DIO    C1935586   3.420   0.724   9.231
  636DIO     F635587   3.483   0.747   9.348
  636DIO    C2035588   3.079   0.565   9.123
  636DIO     O335589   3.009   0.571   8.998
  636DIO    C2135590   2.966   0.703   8.965
  636DIO    C2235591   2.877   0.759   9.075
  636DIO    C2335592   2.958   0.753   9.205
  636DIO     O435593   3.002   0.620   9.230
  636DIO    C2435594   2.744   0.682   9.092
  636DIO    C2535595   2.653   0.678   8.969
  636DIO    C2635596   2.615   0.815   8.916
  636DIO     H135597   4.335   0.678   9.182
  636DIO     H235598   4.294   0.960   8.844
  636DIO     H335599   4.117   0.743   8.800
  636DIO     H435600   3.866   0.715   8.810
  636DIO     H535601   3.867   0.817   9.234
  636DIO     H635602   3.257   0.570   8.903
  636DIO     H735603   3.246   0.644   9.336
  636DIO     H835604   3.089   0.458   9.145
  636DIO     H935605   3.052   0.767   8.949
  636DIO    H1035606   2.913   0.698   8.870
  636DIO    H1135607   2.854   0.864   9.054
  636DIO    H1235608   2.896   0.784   9.290
  636DIO    H1335609   3.044   0.820   9.201
  636DIO    H1435610   2.764   0.579   9.123
  636DIO    H1535611   2.688   0.728   9.174
  636DIO    H1635612   2.701   0.620   8.889
  636DIO    H1735613   2.562   0.624   8.995
  636DIO    H1835614   2.571   0.877   8.994
  636DIO    H1935615   2.701   0.868   8.874
  636DIO    H2035616   2.541   0.805   8.835
  637DIO     F135617   9.130   4.915   0.200
  637DIO     C135618   9.052   4.911   0.310
  637DIO     C235619   8.908   4.920   0.296
  637DIO     C335620   8.820   4.917   0.414
  637DIO     C435621   8.885   4.902   0.546
  637DIO     C535622   9.029   4.893   0.558
  637DIO     F235623   9.085   4.876   0.679
  637DIO     C635624   9.113   4.897   0.440
  637DIO     F335625   9.247   4.889   0.452
  637DIO     C735626   8.673   4.928   0.402
  637DIO     C835627   8.596   5.025   0.483
  637DIO     C935628   8.451   5.034   0.471
  637DIO    C1035629   8.379   4.942   0.387
  637DIO    C1135630   8.451   4.850   0.300
  637DIO    C1235631   8.595   4.842   0.310
  637DIO     F435632   8.660   4.753   0.233
  637DIO     O135633   8.247   4.972   0.362
  637DIO    C1335634   8.152   4.871   0.346
  637DIO     O235635   8.151   4.749   0.377
  637DIO    C1435636   8.023   4.922   0.298
  637DIO    C1535637   7.957   5.038   0.361
  637DIO     F535638   8.019   5.107   0.459
  637DIO    C1635639   7.826   5.085   0.320
  637DIO    C1735640   7.750   5.014   0.218
  637DIO    C1835641   7.819   4.910   0.142
  637DIO    C1935642   7.950   4.864   0.183
  637DIO     F635643   8.013   4.777   0.100
  637DIO    C2035644   7.609   5.055   0.181
  637DIO     O335645   7.540   5.122   0.287
  637DIO    C2135646   7.496   5.032   0.389
  637DIO    C2235647   7.407   4.923   0.331
  637DIO    C2335648   7.488   4.855   0.221
  637DIO     O435649   7.532   4.949   0.124
  637DIO    C2435650   7.274   4.977   0.273
  637DIO    C2535651   7.184   5.051   0.372
  637DIO    C2635652   7.145   4.968   0.494
  637DIO     H135653   8.866   4.929   0.196
  637DIO     H235654   8.824   4.890   0.635
  637DIO     H335655   8.648   5.094   0.548
  637DIO     H435656   8.396   5.111   0.524
  637DIO     H535657   8.397   4.785   0.233
  637DIO     H635658   7.788   5.177   0.364
  637DIO     H735659   7.776   4.869   0.052
  637DIO     H835660   7.619   5.131   0.102
  637DIO     H935661   7.583   4.989   0.440
  637DIO    H1035662   7.443   5.091   0.465
  637DIO    H1135663   7.385   4.849   0.409
  637DIO    H1235664   7.427   4.780   0.168
  637DIO    H1335665   7.574   4.801   0.263
  637DIO    H1435666   7.294   5.044   0.189
  637DIO    H1535667   7.218   4.892   0.232
  637DIO    H1635668   7.231   5.144   0.405
  637DIO    H1735669   7.092   5.080   0.319
  637DIO    H1835670   7.101   4.872   0.465
  637DIO    H1935671   7.232   4.949   0.558
  637DIO    H2035672   7.072   5.022   0.554
  638DIO     F135673   2.130   0.781   8.719
  638DIO     C135674   2.053   0.760   8.827
  638DIO     C235675   1.908   0.772   8.814
  638DIO     C335676   1.820   0.752   8.931
  638DIO     C435677   1.885   0.718   9.060
  638DIO     C535678   2.029   0.708   9.070
  638DIO     F235679   2.085   0.673   9.188
  638DIO     C635680   2.113   0.728   8.954
  638DIO     F335681   2.247   0.719   8.965
  638DIO     C735682   1.673   0.764   8.920
  638DIO     C835683   1.596   0.849   9.014
  638DIO     C935684   1.451   0.860   9.004
  638DIO    C1035685   1.379   0.780   8.907
  638DIO    C1135686   1.451   0.702   8.809
  638DIO    C1235687   1.595   0.693   8.817
  638DIO     F435688   1.660   0.615   8.728
  638DIO     O135689   1.247   0.814   8.887
  638DIO    C1335690   1.152   0.716   8.857
  638DIO     O235691   1.151   0.591   8.870
  638DIO    C1435692   1.023   0.773   8.817
  638DIO    C1535693   0.957   0.879   8.896
  638DIO     F535694   1.019   0.933   9.002
  638DIO    C1635695   0.826   0.932   8.862
  638DIO    C1735696   0.750   0.876   8.750
  638DIO    C1835697   0.819   0.784   8.661
  638DIO    C1935698   0.951   0.732   8.694
  638DIO     F635699   1.013   0.658   8.600
  638DIO    C2035700   0.609   0.922   8.720
  638DIO     O335701   0.540   0.973   8.835
  638DIO    C2135702   0.496   0.870   8.923
  638DIO    C2235703   0.407   0.770   8.849
  638DIO    C2335704   0.488   0.718   8.731
  638DIO     O435705   0.532   0.825   8.649
  638DIO    C2435706   0.274   0.831   8.800
  638DIO    C2535707   0.184   0.890   8.909
  638DIO    C2635708   0.145   0.791   9.017
  638DIO     H135709   1.866   0.795   8.717
  638DIO     H235710   1.825   0.693   9.146
  638DIO     H335711   1.648   0.907   9.089
  638DIO     H435712   1.396   0.928   9.068
  638DIO     H535713   1.397   0.647   8.733
  638DIO     H635714   0.788   1.016   8.919
  638DIO     H735715   0.776   0.756   8.565
  638DIO     H835716   0.619   1.008   8.653
  638DIO     H935717   0.583   0.819   8.966
  638DIO    H1035718   0.443   0.917   9.006
  638DIO    H1135719   0.385   0.685   8.916
  638DIO    H1235720   0.427   0.651   8.668
  638DIO    H1335721   0.574   0.659   8.764
  638DIO    H1435722   0.294   0.910   8.726
  638DIO    H1535723   0.218   0.753   8.747
  638DIO    H1635724   0.231   0.978   8.954
  638DIO    H1735725   0.092   0.927   8.861
  638DIO    H1835726   0.101   0.700   8.975
  638DIO    H1935727   0.232   0.762   9.078
  638DIO    H2035728   0.072   0.836   9.085
  639DIO     F135729   2.184   5.971   4.681
  639DIO     C135730   2.106   5.865   4.653
  639DIO     C235731   1.962   5.877   4.665
  639DIO     C335732   1.873   5.761   4.638
  639DIO     C435733   1.939   5.635   4.596
  639DIO     C535734   2.083   5.626   4.585
  639DIO     F235735   2.138   5.511   4.542
  639DIO     C635736   2.167   5.740   4.613
  639DIO     F335737   2.301   5.730   4.603
  639DIO     C735738   1.727   5.771   4.651
  639DIO     C835739   1.650   5.672   4.729
  639DIO     C935740   1.505   5.681   4.741
  639DIO    C1035741   1.432   5.783   4.668
  639DIO    C1135742   1.505   5.887   4.596
  639DIO    C1235743   1.649   5.879   4.587
  639DIO     F435744   1.714   5.973   4.515
  639DIO     O135745   1.300   5.801   4.703
  639DIO    C1335746   1.206   5.838   4.607
  639DIO     O235747   1.205   5.833   4.481
  639DIO    C1435748   1.077   5.874   4.667
  639DIO    C1535749   1.010   5.788   4.767
  639DIO     F535750   1.073   5.678   4.814
  639DIO    C1635751   0.880   5.819   4.822
  639DIO    C1735752   0.804   5.933   4.774
  639DIO    C1835753   0.873   6.029   4.688
  639DIO    C1935754   1.004   5.999   4.634
  639DIO     F635755   1.067   6.098   4.567
  639DIO    C2035756   0.663   5.960   4.822
  639DIO     O335757   0.593   5.843   4.865
  639DIO    C2135758   0.550   5.762   4.756
  639DIO    C2235759   0.461   5.842   4.661
  639DIO    C2335760   0.542   5.964   4.617
  639DIO     O435761   0.586   6.038   4.730
  639DIO    C2435762   0.328   5.887   4.726
  639DIO    C2535763   0.237   5.775   4.778
  639DIO    C2635764   0.199   5.673   4.671
  639DIO     H135765   1.919   5.972   4.695
  639DIO     H235766   1.878   5.551   4.565
  639DIO     H335767   1.701   5.593   4.782
  639DIO     H435768   1.450   5.613   4.805
  639DIO     H535769   1.451   5.966   4.547
  639DIO     H635770   0.841   5.756   4.902
  639DIO     H735771   0.830   6.126   4.667
  639DIO     H835772   0.673   6.022   4.912
  639DIO     H935773   0.636   5.722   4.703
  639DIO    H1035774   0.497   5.676   4.797
  639DIO    H1135775   0.438   5.781   4.573
  639DIO    H1235776   0.480   6.030   4.555
  639DIO    H1335777   0.628   5.934   4.556
  639DIO    H1435778   0.348   5.955   4.810
  639DIO    H1535779   0.272   5.945   4.652
  639DIO    H1635780   0.285   5.723   4.862
  639DIO    H1735781   0.146   5.820   4.817
  639DIO    H1835782   0.155   5.722   4.584
  639DIO    H1935783   0.285   5.614   4.639
  639DIO    H2035784   0.125   5.603   4.712
  640DIO     F135785   3.569   6.805   7.270
  640DIO     C135786   3.492   6.788   7.379
  640DIO     C235787   3.348   6.799   7.366
  640DIO     C335788   3.259   6.784   7.483
  640DIO     C435789   3.324   6.755   7.613
  640DIO     C535790   3.469   6.745   7.623
  640DIO     F235791   3.524   6.714   7.742
  640DIO     C635792   3.552   6.761   7.507
  640DIO     F335793   3.686   6.752   7.518
  640DIO     C735794   3.112   6.795   7.472
  640DIO     C835795   3.035   6.883   7.563
  640DIO     C935796   2.891   6.894   7.552
  640DIO    C1035797   2.818   6.811   7.458
  640DIO    C1135798   2.890   6.729   7.363
  640DIO    C1235799   3.035   6.720   7.372
  640DIO     F435800   3.099   6.640   7.285
  640DIO     O135801   2.686   6.844   7.437
  640DIO    C1335802   2.591   6.745   7.410
  640DIO     O235803   2.590   6.620   7.428
  640DIO    C1435804   2.462   6.801   7.368
  640DIO    C1535805   2.396   6.910   7.443
  640DIO     F535806   2.458   6.967   7.548
  640DIO    C1635807   2.265   6.961   7.407
  640DIO    C1735808   2.189   6.901   7.298
  640DIO    C1835809   2.258   6.805   7.212
  640DIO    C1935810   2.390   6.755   7.248
  640DIO     F635811   2.452   6.678   7.156
  640DIO    C2035812   2.049   6.946   7.266
  640DIO     O335813   1.979   7.001   7.379
  640DIO    C2135814   1.935   6.901   7.471
  640DIO    C2235815   1.846   6.798   7.401
  640DIO    C2335816   1.927   6.742   7.284
  640DIO     O435817   1.971   6.847   7.198
  640DIO    C2435818   1.713   6.858   7.350
  640DIO    C2535819   1.623   6.921   7.456
  640DIO    C2635820   1.584   6.826   7.568
  640DIO     H135821   3.305   6.819   7.268
  640DIO     H235822   3.264   6.733   7.700
  640DIO     H335823   3.087   6.945   7.635
  640DIO     H435824   2.835   6.965   7.613
  640DIO     H535825   2.836   6.671   7.289
  640DIO     H635826   2.227   7.047   7.461
  640DIO     H735827   2.215   6.774   7.118
  640DIO     H835828   2.058   7.029   7.196
  640DIO     H935829   2.022   6.852   7.516
  640DIO    H1035830   1.882   6.951   7.552
  640DIO    H1135831   1.824   6.717   7.471
  640DIO    H1235832   1.866   6.674   7.224
  640DIO    H1335833   2.013   6.684   7.320
  640DIO    H1435834   1.733   6.934   7.273
  640DIO    H1535835   1.657   6.778   7.299
  640DIO    H1635836   1.670   7.010   7.498
  640DIO    H1735837   1.531   6.956   7.406
  640DIO    H1835838   1.540   6.734   7.529
  640DIO    H1935839   1.671   6.800   7.630
  640DIO    H2035840   1.511   6.873   7.634
  641DIO     F135841   5.825   1.620   2.946
  641DIO     C135842   5.747   1.545   2.865
  641DIO     C235843   5.603   1.549   2.882
  641DIO     C335844   5.514   1.467   2.797
  641DIO     C435845   5.580   1.383   2.693
  641DIO     C535846   5.724   1.381   2.679
  641DIO     F235847   5.779   1.307   2.581
  641DIO     C635848   5.808   1.462   2.764
  641DIO     F335849   5.942   1.459   2.750
  641DIO     C735850   5.368   1.468   2.813
  641DIO     C835851   5.291   1.342   2.825
  641DIO     C935852   5.146   1.344   2.840
  641DIO    C1035853   5.073   1.469   2.833
  641DIO    C1135854   5.146   1.595   2.829
  641DIO    C1235855   5.290   1.593   2.817
  641DIO     F435856   5.355   1.711   2.807
  641DIO     O135857   4.941   1.465   2.872
  641DIO    C1335858   4.847   1.548   2.812
  641DIO     O235859   4.846   1.611   2.703
  641DIO    C1435860   4.718   1.546   2.881
  641DIO    C1535861   4.651   1.419   2.920
  641DIO     F535862   4.714   1.301   2.900
  641DIO    C1635863   4.521   1.415   2.983
  641DIO    C1735864   4.445   1.538   3.004
  641DIO    C1835865   4.514   1.665   2.983
  641DIO    C1935866   4.645   1.669   2.921
  641DIO     F635867   4.708   1.788   2.918
  641DIO    C2035868   4.304   1.535   3.059
  641DIO     O335869   4.234   1.413   3.031
  641DIO    C2135870   4.191   1.403   2.896
  641DIO    C2235871   4.102   1.522   2.859
  641DIO    C2335872   4.183   1.648   2.888
  641DIO     O435873   4.227   1.650   3.024
  641DIO    C2435874   3.969   1.525   2.938
  641DIO    C2535875   3.878   1.402   2.921
  641DIO    C2635876   3.840   1.374   2.777
  641DIO     H135877   5.560   1.613   2.958
  641DIO     H235878   5.519   1.329   2.622
  641DIO     H335879   5.342   1.247   2.828
  641DIO     H435880   5.091   1.252   2.857
  641DIO     H535881   5.092   1.688   2.830
  641DIO     H635882   4.482   1.320   3.016
  641DIO     H735883   4.471   1.758   3.017
  641DIO     H835884   4.314   1.538   3.168
  641DIO     H935885   4.277   1.398   2.830
  641DIO    H1035886   4.138   1.308   2.885
  641DIO    H1135887   4.079   1.518   2.752
  641DIO    H1235888   4.121   1.738   2.872
  641DIO    H1335889   4.269   1.656   2.821
  641DIO    H1435890   3.989   1.537   3.045
  641DIO    H1535891   3.913   1.614   2.907
  641DIO    H1635892   3.926   1.314   2.965
  641DIO    H1735893   3.787   1.419   2.979
  641DIO    H1835894   3.796   1.462   2.729
  641DIO    H1935895   3.926   1.342   2.718
  641DIO    H2035896   3.766   1.293   2.773
  642DIO     F135897   7.332   4.537   9.113
  642DIO     C135898   7.254   4.629   9.053
  642DIO     C235899   7.110   4.612   9.053
  642DIO     C335900   7.021   4.710   8.986
  642DIO     C435901   7.087   4.825   8.921
  642DIO     C535902   7.231   4.840   8.921
  642DIO     F235903   7.286   4.949   8.864
  642DIO     C635904   7.315   4.743   8.987
  642DIO     F335905   7.448   4.757   8.986
  642DIO     C735906   6.875   4.694   8.985
  642DIO     C835907   6.798   4.702   8.859
  642DIO     C935908   6.653   4.687   8.858
  642DIO    C1035909   6.580   4.673   8.982
  642DIO    C1135910   6.653   4.657   9.107
  642DIO    C1235911   6.797   4.669   9.108
  642DIO     F435912   6.862   4.659   9.226
  642DIO     O135913   6.448   4.635   8.972
  642DIO    C1335914   6.354   4.681   9.064
  642DIO     O235915   6.353   4.778   9.144
  642DIO    C1435916   6.224   4.613   9.051
  642DIO    C1535917   6.158   4.596   8.919
  642DIO     F535918   6.221   4.635   8.806
  642DIO    C1635919   6.027   4.534   8.905
  642DIO    C1735920   5.952   4.493   9.023
  642DIO    C1835921   6.020   4.494   9.152
  642DIO    C1935922   6.152   4.554   9.165
  642DIO     F635923   6.214   4.537   9.284
  642DIO    C2035924   5.811   4.440   9.011
  642DIO     O335925   5.741   4.487   8.895
  642DIO    C2135926   5.697   4.622   8.908
  642DIO    C2235927   5.609   4.639   9.030
  642DIO    C2335928   5.689   4.590   9.150
  642DIO     O435929   5.734   4.456   9.130
  642DIO    C2435930   5.476   4.560   9.020
  642DIO    C2535931   5.385   4.597   8.903
  642DIO    C2635932   5.347   4.744   8.898
  642DIO     H135933   7.067   4.527   9.104
  642DIO     H235934   7.026   4.905   8.878
  642DIO     H335935   6.849   4.715   8.765
  642DIO     H435936   6.598   4.685   8.765
  642DIO     H535937   6.598   4.641   9.199
  642DIO     H635938   5.989   4.517   8.805
  642DIO     H735939   5.977   4.444   9.238
  642DIO     H835940   5.821   4.332   8.997
  642DIO     H935941   5.784   4.688   8.913
  642DIO    H1035942   5.645   4.649   8.816
  642DIO    H1135943   5.586   4.745   9.044
  642DIO    H1235944   5.628   4.591   9.241
  642DIO    H1335945   5.775   4.655   9.169
  642DIO    H1435946   5.496   4.453   9.015
  642DIO    H1535947   5.419   4.577   9.113
  642DIO    H1635948   5.432   4.569   8.808
  642DIO    H1735949   5.293   4.537   8.910
  642DIO    H1835950   5.303   4.777   8.993
  642DIO    H1935951   5.433   4.808   8.876
  642DIO    H2035952   5.273   4.761   8.819
  643DIO     F135953   8.376   9.108   6.746
  643DIO     C135954   8.299   9.208   6.793
  643DIO     C235955   8.155   9.198   6.779
  643DIO     C335956   8.066   9.307   6.826
  643DIO     C435957   8.131   9.423   6.891
  643DIO     C535958   8.276   9.430   6.904
  643DIO     F235959   8.331   9.536   6.966
  643DIO     C635960   8.359   9.323   6.855
  643DIO     F335961   8.493   9.331   6.867
  643DIO     C735962   7.919   9.299   6.812
  643DIO     C835963   7.842   9.411   6.754
  643DIO     C935964   7.698   9.404   6.740
  643DIO    C1035965   7.625   9.291   6.793
  643DIO    C1135966   7.697   9.176   6.845
  643DIO    C1235967   7.842   9.182   6.856
  643DIO     F435968   7.906   9.076   6.909
  643DIO     O135969   7.493   9.280   6.756
  643DIO    C1335970   7.398   9.226   6.843
  643DIO     O235971   7.397   9.208   6.967
  643DIO    C1435972   7.269   9.201   6.778
  643DIO    C1535973   7.203   9.304   6.694
  643DIO     F535974   7.265   9.421   6.669
  643DIO    C1635975   7.072   9.284   6.635
  643DIO    C1735976   6.996   9.162   6.661
  643DIO    C1835977   7.065   9.053   6.729
  643DIO    C1935978   7.197   9.073   6.787
  643DIO     F635979   7.259   8.963   6.835
  643DIO    C2035980   6.856   9.145   6.609
  643DIO     O335981   6.786   9.268   6.589
  643DIO    C2135982   6.742   9.328   6.710
  643DIO    C2235983   6.653   9.232   6.789
  643DIO    C2335984   6.734   9.104   6.810
  643DIO     O435985   6.778   9.051   6.685
  643DIO    C2435986   6.520   9.199   6.717
  643DIO    C2535987   6.430   9.319   6.687
  643DIO    C2635988   6.391   9.400   6.810
  643DIO     H135989   8.112   9.110   6.732
  643DIO     H235990   8.071   9.501   6.936
  643DIO     H335991   7.894   9.498   6.715
  643DIO     H435992   7.642   9.483   6.690
  643DIO     H535993   7.643   9.089   6.879
  643DIO     H635994   7.034   9.360   6.568
  643DIO     H735995   7.022   8.953   6.732
  643DIO     H835996   6.865   9.100   6.510
  643DIO     H935997   6.829   9.358   6.770
  643DIO    H1035998   6.689   9.420   6.685
  643DIO    H1135999   6.631   9.276   6.887
  643DIO    H1236000   6.673   9.027   6.859
  643DIO    H1336001   6.820   9.122   6.875
  643DIO    H1436002   6.540   9.147   6.623
  643DIO    H1536003   6.464   9.129   6.779
  643DIO    H1636004   6.477   9.385   6.613
  643DIO    H1736005   6.338   9.282   6.640
  643DIO    H1836006   6.347   9.336   6.887
  643DIO    H1936007   6.478   9.452   6.853
  643DIO    H2036008   6.318   9.476   6.783
  644DIO     F136009   6.905   9.169   3.777
  644DIO     C136010   6.827   9.278   3.761
  644DIO     C236011   6.683   9.262   3.754
  644DIO     C336012   6.594   9.378   3.734
  644DIO     C436013   6.660   9.511   3.723
  644DIO     C536014   6.804   9.524   3.729
  644DIO     F236015   6.859   9.647   3.723
  644DIO     C636016   6.888   9.408   3.749
  644DIO     F336017   7.021   9.421   3.754
  644DIO     C736018   6.448   9.364   3.726
  644DIO     C836019   6.371   9.425   3.615
  644DIO     C936020   6.226   9.411   3.608
  644DIO    C1036021   6.153   9.347   3.715
  644DIO    C1136022   6.226   9.280   3.822
  644DIO    C1236023   6.370   9.291   3.828
  644DIO     F436024   6.435   9.233   3.931
  644DIO     O136025   6.021   9.317   3.690
  644DIO    C1336026   5.927   9.320   3.793
  644DIO     O236027   5.926   9.375   3.906
  644DIO    C1436028   5.798   9.264   3.752
  644DIO    C1536029   5.731   9.303   3.626
  644DIO     F536030   5.794   9.385   3.539
  644DIO    C1636031   5.600   9.253   3.587
  644DIO    C1736032   5.525   9.167   3.677
  644DIO    C1836033   5.593   9.113   3.794
  644DIO    C1936034   5.725   9.162   3.832
  644DIO     F636035   5.788   9.098   3.933
  644DIO    C2036036   5.384   9.123   3.644
  644DIO     O336037   5.314   9.214   3.558
  644DIO    C2136038   5.271   9.331   3.626
  644DIO    C2236039   5.182   9.296   3.745
  644DIO    C2336040   5.262   9.201   3.833
  644DIO     O436041   5.307   9.088   3.759
  644DIO    C2436042   5.049   9.229   3.703
  644DIO    C2536043   4.958   9.311   3.611
  644DIO    C2636044   4.920   9.447   3.668
  644DIO     H136045   6.640   9.163   3.765
  644DIO     H236046   6.599   9.601   3.717
  644DIO     H336047   6.422   9.476   3.535
  644DIO     H436048   6.171   9.448   3.522
  644DIO     H536049   6.171   9.227   3.899
  644DIO     H636050   5.562   9.279   3.489
  644DIO     H736051   5.551   9.032   3.852
  644DIO     H836052   5.394   9.031   3.586
  644DIO     H936053   5.357   9.389   3.659
  644DIO    H1036054   5.218   9.394   3.554
  644DIO    H1136055   5.159   9.386   3.802
  644DIO    H1236056   5.201   9.164   3.916
  644DIO    H1336057   5.349   9.252   3.877
  644DIO    H1436058   5.069   9.133   3.653
  644DIO    H1536059   4.992   9.204   3.794
  644DIO    H1636060   5.006   9.325   3.513
  644DIO    H1736061   4.866   9.254   3.593
  644DIO    H1836062   4.876   9.437   3.768
  644DIO    H1936063   5.006   9.513   3.675
  644DIO    H2036064   4.846   9.495   3.603
  645DIO     F136065   9.453   8.487   3.460
  645DIO     C136066   9.375   8.591   3.495
  645DIO     C236067   9.231   8.580   3.482
  645DIO     C336068   9.142   8.693   3.516
  645DIO     C436069   9.208   8.816   3.566
  645DIO     C536070   9.352   8.825   3.578
  645DIO     F236071   9.408   8.937   3.628
  645DIO     C636072   9.436   8.713   3.543
  645DIO     F336073   9.570   8.723   3.554
  645DIO     C736074   8.996   8.684   3.503
  645DIO     C836075   8.919   8.788   3.432
  645DIO     C936076   8.774   8.780   3.419
  645DIO    C1036077   8.702   8.673   3.486
  645DIO    C1136078   8.774   8.565   3.550
  645DIO    C1236079   8.918   8.573   3.561
  645DIO     F436080   8.983   8.474   3.626
  645DIO     O136081   8.569   8.658   3.450
  645DIO    C1336082   8.475   8.615   3.542
  645DIO     O236083   8.474   8.612   3.668
  645DIO    C1436084   8.346   8.583   3.481
  645DIO    C1536085   8.280   8.675   3.386
  645DIO     F536086   8.342   8.788   3.346
  645DIO    C1636087   8.149   8.648   3.329
  645DIO    C1736088   8.073   8.530   3.370
  645DIO    C1836089   8.142   8.430   3.450
  645DIO    C1936090   8.273   8.456   3.505
  645DIO     F636091   8.336   8.353   3.566
  645DIO    C2036092   7.932   8.506   3.320
  645DIO     O336093   7.863   8.626   3.285
  645DIO    C2136094   7.819   8.700   3.399
  645DIO    C2236095   7.730   8.615   3.488
  645DIO    C2336096   7.811   8.490   3.525
  645DIO     O436097   7.855   8.423   3.407
  645DIO    C2436098   7.597   8.574   3.421
  645DIO    C2536099   7.507   8.689   3.377
  645DIO    C2636100   7.468   8.784   3.489
  645DIO     H136101   9.189   8.487   3.446
  645DIO     H236102   9.147   8.899   3.603
  645DIO     H336103   8.970   8.870   3.383
  645DIO     H436104   8.719   8.851   3.360
  645DIO     H536105   8.720   8.483   3.595
  645DIO     H636106   8.111   8.715   3.253
  645DIO     H736107   8.099   8.331   3.465
  645DIO     H836108   7.942   8.450   3.227
  645DIO     H936109   7.906   8.737   3.455
  645DIO    H1036110   7.766   8.789   3.363
  645DIO    H1136111   7.707   8.670   3.580
  645DIO    H1236112   7.750   8.420   3.582
  645DIO    H1336113   7.897   8.516   3.587
  645DIO    H1436114   7.617   8.511   3.333
  645DIO    H1536115   7.541   8.511   3.491
  645DIO    H1636116   7.554   8.745   3.295
  645DIO    H1736117   7.415   8.646   3.334
  645DIO    H1836118   7.424   8.730   3.573
  645DIO    H1936119   7.555   8.840   3.525
  645DIO    H2036120   7.394   8.856   3.453
  646DIO     F136121   6.097   3.220   7.735
  646DIO     C136122   6.019   3.135   7.805
  646DIO     C236123   5.875   3.152   7.802
  646DIO     C336124   5.786   3.062   7.880
  646DIO     C436125   5.852   2.955   7.958
  646DIO     C536126   5.996   2.940   7.959
  646DIO     F236127   6.051   2.838   8.027
  646DIO     C636128   6.080   3.029   7.882
  646DIO     F336129   6.213   3.015   7.885
  646DIO     C736130   5.640   3.078   7.879
  646DIO     C836131   5.563   3.084   8.005
  646DIO     C936132   5.418   3.099   8.005
  646DIO    C1036133   5.345   3.099   7.879
  646DIO    C1136134   5.418   3.102   7.754
  646DIO    C1236135   5.562   3.089   7.754
  646DIO     F436136   5.627   3.086   7.636
  646DIO     O136137   5.213   3.138   7.885
  646DIO    C1336138   5.119   3.082   7.800
  646DIO     O236139   5.118   2.977   7.730
  646DIO    C1436140   4.990   3.151   7.805
  646DIO    C1536141   4.923   3.183   7.934
  646DIO     F536142   4.986   3.157   8.050
  646DIO    C1636143   4.792   3.245   7.941
  646DIO    C1736144   4.717   3.273   7.819
  646DIO    C1836145   4.785   3.259   7.692
  646DIO    C1936146   4.917   3.198   7.685
  646DIO     F636147   4.980   3.201   7.565
  646DIO    C2036148   4.576   3.328   7.826
  646DIO     O336149   4.506   3.294   7.946
  646DIO    C2136150   4.463   3.158   7.948
  646DIO    C2236151   4.374   3.128   7.828
  646DIO    C2336152   4.454   3.163   7.703
  646DIO     O436153   4.499   3.299   7.709
  646DIO    C2436154   4.241   3.207   7.829
  646DIO    C2536155   4.150   3.183   7.950
  646DIO    C2636156   4.112   3.038   7.971
  646DIO     H136157   5.832   3.231   7.742
  646DIO     H236158   5.791   2.880   8.008
  646DIO     H336159   5.614   3.082   8.101
  646DIO     H436160   5.363   3.111   8.097
  646DIO     H536161   5.363   3.107   7.660
  646DIO     H636162   4.754   3.274   8.038
  646DIO     H736163   4.743   3.298   7.600
  646DIO     H836164   4.586   3.437   7.828
  646DIO     H936165   4.549   3.092   7.950
  646DIO    H1036166   4.410   3.142   8.042
  646DIO    H1136167   4.351   3.021   7.826
  646DIO    H1236168   4.393   3.152   7.613
  646DIO    H1336169   4.541   3.096   7.692
  646DIO    H1436170   4.261   3.314   7.822
  646DIO    H1536171   4.184   3.181   7.739
  646DIO    H1636172   4.198   3.222   8.041
  646DIO    H1736173   4.058   3.242   7.937
  646DIO    H1836174   4.068   2.995   7.881
  646DIO    H1936175   4.198   2.977   8.000
  646DIO    H2036176   4.038   3.030   8.052
  647DIO     F136177   6.030   0.148   3.298
  647DIO     C136178   5.952   0.187   3.401
  647DIO     C236179   5.808   0.190   3.385
  647DIO     C336180   5.720   0.234   3.494
  647DIO     C436181   5.785   0.273   3.622
  647DIO     C536182   5.929   0.269   3.636
  647DIO     F236183   5.985   0.301   3.754
  647DIO     C636184   6.013   0.226   3.526
  647DIO     F336185   6.147   0.224   3.541
  647DIO     C736186   5.573   0.239   3.479
  647DIO     C836187   5.496   0.360   3.515
  647DIO     C936188   5.351   0.365   3.501
  647DIO    C1036189   5.279   0.246   3.460
  647DIO    C1136190   5.351   0.128   3.416
  647DIO    C1236191   5.495   0.124   3.428
  647DIO     F436192   5.560   0.012   3.393
  647DIO     O136193   5.147   0.264   3.425
  647DIO    C1336194   5.052   0.165   3.450
  647DIO     O236195   5.051   0.065   3.527
  647DIO    C1436196   4.923   0.193   3.386
  647DIO    C1536197   4.857   0.325   3.398
  647DIO     F536198   4.919   0.426   3.461
  647DIO    C1636199   4.726   0.352   3.341
  647DIO    C1736200   4.650   0.246   3.275
  647DIO    C1836201   4.719   0.121   3.248
  647DIO    C1936202   4.850   0.094   3.303
  647DIO     F636203   4.913  -0.018   3.261
  647DIO    C2036204   4.509   0.270   3.226
  647DIO     O336205   4.440   0.372   3.297
  647DIO    C2136206   4.396   0.330   3.426
  647DIO    C2236207   4.307   0.207   3.416
  647DIO    C2336208   4.388   0.100   3.341
  647DIO     O436209   4.432   0.150   3.215
  647DIO    C2436210   4.174   0.234   3.341
  647DIO    C2536211   4.084   0.341   3.403
  647DIO    C2636212   4.045   0.313   3.548
  647DIO     H136213   5.766   0.159   3.290
  647DIO     H236214   5.724   0.297   3.708
  647DIO     H336215   5.548   0.449   3.548
  647DIO     H436216   5.296   0.456   3.519
  647DIO     H536217   5.297   0.041   3.381
  647DIO     H636218   4.688   0.453   3.346
  647DIO     H736219   4.676   0.047   3.180
  647DIO     H836220   4.519   0.307   3.123
  647DIO     H936221   4.483   0.310   3.490
  647DIO    H1036222   4.343   0.414   3.472
  647DIO    H1136223   4.285   0.170   3.516
  647DIO    H1236224   4.327   0.012   3.323
  647DIO    H1336225   4.474   0.068   3.401
  647DIO    H1436226   4.194   0.262   3.237
  647DIO    H1536227   4.118   0.140   3.337
  647DIO    H1636228   4.131   0.439   3.396
  647DIO    H1736229   3.992   0.347   3.343
  647DIO    H1836230   4.001   0.213   3.558
  647DIO    H1936231   4.132   0.320   3.614
  647DIO    H2036232   3.972   0.386   3.582
  648DIO     F136233   9.195   0.204   8.164
  648DIO     C136234   9.117   0.157   8.263
  648DIO     C236235   8.973   0.171   8.254
  648DIO     C336236   8.884   0.123   8.362
  648DIO     C436237   8.950   0.058   8.478
  648DIO     C536238   9.094   0.045   8.485
  648DIO     F236239   9.150  -0.018   8.590
  648DIO     C636240   9.178   0.094   8.378
  648DIO     F336241   9.312   0.082   8.387
  648DIO     C736242   8.738   0.137   8.355
  648DIO     C836243   8.661   0.195   8.467
  648DIO     C936244   8.516   0.209   8.460
  648DIO    C1036245   8.444   0.156   8.346
  648DIO    C1136246   8.516   0.105   8.231
  648DIO    C1236247   8.660   0.094   8.237
  648DIO     F436248   8.725   0.041   8.131
  648DIO     O136249   8.311   0.193   8.335
  648DIO    C1336250   8.217   0.106   8.281
  648DIO     O236251   8.216  -0.018   8.263
  648DIO    C1436252   8.088   0.172   8.257
  648DIO    C1536253   8.022   0.255   8.360
  648DIO     F536254   8.084   0.280   8.477
  648DIO    C1636255   7.891   0.314   8.340
  648DIO    C1736256   7.815   0.288   8.218
  648DIO    C1836257   7.884   0.221   8.108
  648DIO    C1936258   8.015   0.163   8.128
  648DIO     F636259   8.078   0.115   8.018
  648DIO    C2036260   7.674   0.340   8.201
  648DIO     O336261   7.605   0.360   8.324
  648DIO    C2136262   7.561   0.239   8.383
  648DIO    C2236263   7.472   0.160   8.287
  648DIO    C2336264   7.553   0.140   8.159
  648DIO     O436265   7.597   0.264   8.107
  648DIO    C2436266   7.339   0.232   8.255
  648DIO    C2536267   7.249   0.262   8.375
  648DIO    C2636268   7.210   0.139   8.455
  648DIO     H136269   8.931   0.217   8.166
  648DIO     H236270   8.889   0.012   8.556
  648DIO     H336271   8.712   0.233   8.554
  648DIO     H436272   8.461   0.259   8.538
  648DIO     H536273   8.462   0.070   8.144
  648DIO     H636274   7.853   0.381   8.416
  648DIO     H736275   7.841   0.218   8.009
  648DIO     H836276   7.684   0.440   8.156
  648DIO     H936277   7.648   0.179   8.413
  648DIO    H1036278   7.508   0.263   8.476
  648DIO    H1136279   7.449   0.062   8.331
  648DIO    H1236280   7.492   0.091   8.082
  648DIO    H1336281   7.639   0.074   8.177
  648DIO    H1436282   7.359   0.327   8.203
  648DIO    H1536283   7.283   0.170   8.184
  648DIO    H1636284   7.296   0.336   8.441
  648DIO    H1736285   7.157   0.309   8.338
  648DIO    H1836286   7.166   0.062   8.391
  648DIO    H1936287   7.297   0.096   8.507
  648DIO    H2036288   7.136   0.166   8.532
  649DIO     F136289   4.876   4.727   2.499
  649DIO     C136290   4.798   4.618   2.508
  649DIO     C236291   4.654   4.633   2.515
  649DIO     C336292   4.565   4.515   2.528
  649DIO     C436293   4.631   4.382   2.530
  649DIO     C536294   4.775   4.370   2.522
  649DIO     F236295   4.831   4.247   2.520
  649DIO     C636296   4.859   4.487   2.511
  649DIO     F336297   4.993   4.474   2.505
  649DIO     C736298   4.419   4.528   2.536
  649DIO     C836299   4.342   4.461   2.643
  649DIO     C936300   4.197   4.473   2.651
  649DIO    C1036301   4.125   4.545   2.548
  649DIO    C1136302   4.197   4.620   2.447
  649DIO    C1236303   4.341   4.609   2.440
  649DIO     F436304   4.406   4.674   2.341
  649DIO     O136305   3.992   4.574   2.575
  649DIO    C1336306   3.898   4.577   2.473
  649DIO     O236307   3.897   4.531   2.356
  649DIO    C1436308   3.769   4.631   2.517
  649DIO    C1536309   3.702   4.583   2.641
  649DIO     F536310   3.765   4.495   2.721
  649DIO    C1636311   3.572   4.630   2.683
  649DIO    C1736312   3.496   4.722   2.599
  649DIO    C1836313   3.565   4.784   2.486
  649DIO    C1936314   3.696   4.738   2.445
  649DIO     F636315   3.759   4.809   2.349
  649DIO    C2036316   3.355   4.764   2.635
  649DIO     O336317   3.285   4.667   2.715
  649DIO    C2136318   3.242   4.555   2.639
  649DIO    C2236319   3.153   4.598   2.523
  649DIO    C2336320   3.234   4.699   2.441
  649DIO     O436321   3.278   4.807   2.523
  649DIO    C2436322   3.020   4.662   2.569
  649DIO    C2536323   2.929   4.574   2.655
  649DIO    C2636324   2.891   4.442   2.588
  649DIO     H136325   4.612   4.732   2.512
  649DIO     H236326   4.570   4.292   2.529
  649DIO     H336327   4.393   4.404   2.720
  649DIO     H436328   4.142   4.431   2.734
  649DIO     H536329   4.143   4.678   2.373
  649DIO     H636330   3.534   4.598   2.779
  649DIO     H736331   3.522   4.868   2.434
  649DIO     H836332   3.365   4.852   2.700
  649DIO     H936333   3.328   4.499   2.602
  649DIO    H1036334   3.189   4.487   2.706
  649DIO    H1136335   3.130   4.512   2.460
  649DIO    H1236336   3.173   4.741   2.361
  649DIO    H1336337   3.320   4.651   2.393
  649DIO    H1436338   3.040   4.755   2.625
  649DIO    H1536339   2.964   4.693   2.480
  649DIO    H1636340   2.977   4.553   2.752
  649DIO    H1736341   2.838   4.630   2.677
  649DIO    H1836342   2.847   4.459   2.490
  649DIO    H1936343   2.978   4.376   2.577
  649DIO    H2036344   2.817   4.390   2.650
  650DIO     F136345   9.402   3.172   8.075
  650DIO     C136346   9.325   3.114   8.169
  650DIO     C236347   9.181   3.129   8.161
  650DIO     C336348   9.092   3.070   8.263
  650DIO     C436349   9.157   2.993   8.371
  650DIO     C536350   9.302   2.979   8.377
  650DIO     F236351   9.357   2.905   8.475
  650DIO     C636352   9.385   3.039   8.276
  650DIO     F336353   9.519   3.027   8.283
  650DIO     C736354   8.945   3.084   8.257
  650DIO     C836355   8.868   3.130   8.375
  650DIO     C936356   8.724   3.145   8.370
  650DIO    C1036357   8.651   3.104   8.251
  650DIO    C1136358   8.723   3.066   8.131
  650DIO    C1236359   8.868   3.054   8.135
  650DIO     F436360   8.932   3.013   8.025
  650DIO     O136361   8.519   3.143   8.244
  650DIO    C1336362   8.424   3.062   8.181
  650DIO     O236363   8.423   2.940   8.149
  650DIO    C1436364   8.295   3.130   8.164
  650DIO    C1536365   8.229   3.201   8.275
  650DIO     F536366   8.291   3.214   8.394
  650DIO    C1636367   8.098   3.262   8.262
  650DIO    C1736368   8.022   3.250   8.138
  650DIO    C1836369   8.091   3.195   8.022
  650DIO    C1936370   8.223   3.135   8.035
  650DIO     F636371   8.285   3.099   7.920
  650DIO    C2036372   7.882   3.303   8.126
  650DIO     O336373   7.812   3.310   8.251
  650DIO    C2136374   7.768   3.182   8.297
  650DIO    C2236375   7.679   3.115   8.193
  650DIO    C2336376   7.760   3.108   8.063
  650DIO     O436377   7.804   3.238   8.025
  650DIO    C2436378   7.546   3.190   8.168
  650DIO    C2536379   7.456   3.207   8.291
  650DIO    C2636380   7.417   3.076   8.357
  650DIO     H136381   9.138   3.185   8.078
  650DIO     H236382   9.097   2.939   8.443
  650DIO     H336383   8.920   3.159   8.466
  650DIO     H436384   8.668   3.186   8.453
  650DIO     H536385   8.669   3.041   8.041
  650DIO     H636386   8.060   3.321   8.345
  650DIO     H736387   8.048   3.203   7.922
  650DIO     H836388   7.891   3.407   8.093
  650DIO     H936389   7.855   3.120   8.320
  650DIO    H1036390   7.715   3.197   8.391
  650DIO    H1136391   7.657   3.013   8.225
  650DIO    H1236392   7.699   3.068   7.982
  650DIO    H1336393   7.846   3.041   8.074
  650DIO    H1436394   7.566   3.290   8.127
  650DIO    H1536395   7.490   3.136   8.091
  650DIO    H1636396   7.503   3.273   8.364
  650DIO    H1736397   7.364   3.258   8.259
  650DIO    H1836398   7.373   3.006   8.285
  650DIO    H1936399   7.504   3.027   8.404
  650DIO    H2036400   7.344   3.094   8.436
  651DIO     F136401   5.330   1.900   3.615
  651DIO     C136402   5.253   1.852   3.714
  651DIO     C236403   5.109   1.866   3.704
  651DIO     C336404   5.020   1.817   3.812
  651DIO     C436405   5.085   1.751   3.927
  651DIO     C536406   5.230   1.738   3.934
  651DIO     F236407   5.285   1.674   4.039
  651DIO     C636408   5.313   1.788   3.828
  651DIO     F336409   5.447   1.776   3.836
  651DIO     C736410   4.874   1.831   3.805
  651DIO     C836411   4.796   1.888   3.918
  651DIO     C936412   4.652   1.902   3.911
  651DIO    C1036413   4.579   1.850   3.796
  651DIO    C1136414   4.652   1.800   3.681
  651DIO    C1236415   4.796   1.789   3.687
  651DIO     F436416   4.861   1.737   3.580
  651DIO     O136417   4.447   1.888   3.786
  651DIO    C1336418   4.352   1.801   3.731
  651DIO     O236419   4.352   1.677   3.711
  651DIO    C1436420   4.223   1.867   3.707
  651DIO    C1536421   4.157   1.949   3.811
  651DIO     F536422   4.220   1.973   3.928
  651DIO    C1636423   4.026   2.009   3.792
  651DIO    C1736424   3.950   1.984   3.670
  651DIO    C1836425   4.019   1.918   3.559
  651DIO    C1936426   4.151   1.859   3.578
  651DIO     F636427   4.213   1.812   3.468
  651DIO    C2036428   3.810   2.036   3.653
  651DIO     O336429   3.740   2.055   3.777
  651DIO    C2136430   3.696   1.932   3.834
  651DIO    C2236431   3.607   1.855   3.738
  651DIO    C2336432   3.688   1.836   3.609
  651DIO     O436433   3.732   1.961   3.558
  651DIO    C2436434   3.475   1.927   3.706
  651DIO    C2536435   3.384   1.956   3.826
  651DIO    C2636436   3.346   1.832   3.905
  651DIO     H136437   5.066   1.914   3.617
  651DIO     H236438   5.025   1.704   4.004
  651DIO     H336439   4.848   1.926   4.005
  651DIO     H436440   4.597   1.951   3.990
  651DIO     H536441   4.597   1.767   3.594
  651DIO     H636442   3.988   2.075   3.869
  651DIO     H736443   3.976   1.916   3.460
  651DIO     H836444   3.819   2.136   3.610
  651DIO     H936445   3.783   1.872   3.864
  651DIO    H1036446   3.644   1.956   3.927
  651DIO    H1136447   3.585   1.756   3.780
  651DIO    H1236448   3.627   1.788   3.532
  651DIO    H1336449   3.774   1.770   3.627
  651DIO    H1436450   3.495   2.023   3.655
  651DIO    H1536451   3.418   1.866   3.635
  651DIO    H1636452   3.431   2.029   3.893
  651DIO    H1736453   3.292   2.004   3.789
  651DIO    H1836454   3.302   1.756   3.841
  651DIO    H1936455   3.432   1.789   3.956
  651DIO    H2036456   3.272   1.858   3.982
  652DIO     F136457   8.737   3.687   4.664
  652DIO     C136458   8.659   3.625   4.574
  652DIO     C236459   8.515   3.626   4.591
  652DIO     C336460   8.426   3.557   4.494
  652DIO     C436461   8.492   3.490   4.380
  652DIO     C536462   8.636   3.490   4.365
  652DIO     F236463   8.691   3.431   4.258
  652DIO     C636464   8.720   3.558   4.461
  652DIO     F336465   8.853   3.556   4.447
  652DIO     C736466   8.280   3.556   4.510
  652DIO     C836467   8.203   3.430   4.504
  652DIO     C936468   8.058   3.429   4.519
  652DIO    C1036469   7.985   3.554   4.531
  652DIO    C1136470   8.058   3.679   4.545
  652DIO    C1236471   8.202   3.680   4.533
  652DIO     F436472   8.267   3.798   4.541
  652DIO     O136473   7.853   3.545   4.569
  652DIO    C1336474   7.759   3.635   4.521
  652DIO     O236475   7.758   3.714   4.423
  652DIO    C1436476   7.629   3.623   4.590
  652DIO    C1536477   7.563   3.493   4.609
  652DIO     F536478   7.626   3.379   4.572
  652DIO    C1636479   7.432   3.479   4.671
  652DIO    C1736480   7.357   3.598   4.710
  652DIO    C1836481   7.425   3.726   4.707
  652DIO    C1936482   7.557   3.739   4.647
  652DIO     F636483   7.619   3.858   4.661
  652DIO    C2036484   7.216   3.587   4.764
  652DIO     O336485   7.146   3.470   4.719
  652DIO    C2136486   7.102   3.480   4.584
  652DIO    C2236487   7.014   3.603   4.564
  652DIO    C2336488   7.094   3.724   4.611
  652DIO     O436489   7.139   3.706   4.746
  652DIO    C2436490   6.881   3.594   4.643
  652DIO    C2536491   6.790   3.476   4.608
  652DIO    C2636492   6.752   3.468   4.461
  652DIO     H136493   8.472   3.679   4.675
  652DIO     H236494   8.431   3.446   4.301
  652DIO     H336495   8.254   3.336   4.493
  652DIO     H436496   8.003   3.336   4.523
  652DIO     H536497   8.003   3.772   4.559
  652DIO     H636498   7.394   3.380   4.690
  652DIO     H736499   7.382   3.814   4.755
  652DIO     H836500   7.226   3.574   4.872
  652DIO     H936501   7.189   3.485   4.517
  652DIO    H1036502   7.050   3.388   4.558
  652DIO    H1136503   6.991   3.615   4.458
  652DIO    H1236504   7.033   3.814   4.608
  652DIO    H1336505   7.180   3.741   4.546
  652DIO    H1436506   6.901   3.591   4.751
  652DIO    H1536507   6.824   3.687   4.625
  652DIO    H1636508   6.837   3.382   4.638
  652DIO    H1736509   6.698   3.484   4.668
  652DIO    H1836510   6.708   3.563   4.427
  652DIO    H1936511   6.838   3.446   4.398
  652DIO    H2036512   6.678   3.389   4.446
  653DIO     F136513   2.360   3.995   1.763
  653DIO     C136514   2.282   4.101   1.735
  653DIO     C236515   2.138   4.085   1.730
  653DIO     C336516   2.049   4.199   1.697
  653DIO     C436517   2.115   4.329   1.672
  653DIO     C536518   2.259   4.343   1.677
  653DIO     F236519   2.315   4.464   1.658
  653DIO     C636520   2.343   4.230   1.709
  653DIO     F336521   2.477   4.244   1.712
  653DIO     C736522   1.903   4.184   1.691
  653DIO     C836523   1.826   4.232   1.574
  653DIO     C936524   1.681   4.218   1.568
  653DIO    C1036525   1.609   4.165   1.682
  653DIO    C1136526   1.681   4.110   1.796
  653DIO    C1236527   1.825   4.122   1.800
  653DIO     F436528   1.890   4.075   1.909
  653DIO     O136529   1.476   4.133   1.661
  653DIO    C1336530   1.382   4.148   1.762
  653DIO     O236531   1.381   4.214   1.869
  653DIO    C1436532   1.253   4.087   1.728
  653DIO    C1536533   1.187   4.112   1.598
  653DIO     F536534   1.249   4.185   1.503
  653DIO    C1636535   1.056   4.058   1.565
  653DIO    C1736536   0.980   3.982   1.664
  653DIO    C1836537   1.049   3.942   1.786
  653DIO    C1936538   1.180   3.994   1.818
  653DIO     F636539   1.243   3.941   1.925
  653DIO    C2036540   0.839   3.935   1.635
  653DIO     O336541   0.770   4.017   1.540
  653DIO    C2136542   0.726   4.140   1.595
  653DIO    C2236543   0.637   4.118   1.717
  653DIO    C2336544   0.718   4.033   1.815
  653DIO     O436545   0.762   3.912   1.753
  653DIO    C2436546   0.504   4.046   1.683
  653DIO    C2536547   0.414   4.119   1.582
  653DIO    C2636548   0.375   4.260   1.625
  653DIO     H136549   2.096   3.988   1.751
  653DIO     H236550   2.054   4.418   1.657
  653DIO     H336551   1.877   4.274   1.489
  653DIO     H436552   1.626   4.246   1.480
  653DIO     H536553   1.627   4.066   1.878
  653DIO     H636554   1.018   4.073   1.465
  653DIO     H736555   1.006   3.867   1.852
  653DIO     H836556   0.849   3.837   1.587
  653DIO     H936557   0.813   4.202   1.622
  653DIO    H1036558   0.673   4.195   1.517
  653DIO    H1136559   0.614   4.214   1.764
  653DIO    H1236560   0.657   4.005   1.902
  653DIO    H1336561   0.804   4.089   1.853
  653DIO    H1436562   0.524   3.946   1.644
  653DIO    H1536563   0.448   4.032   1.776
  653DIO    H1636564   0.461   4.122   1.484
  653DIO    H1736565   0.322   4.060   1.570
  653DIO    H1836566   0.331   4.260   1.725
  653DIO    H1936567   0.462   4.327   1.624
  653DIO    H2036568   0.301   4.301   1.555
  654DIO     F136569   7.309   8.373   7.187
  654DIO     C136570   7.231   8.272   7.144
  654DIO     C236571   7.087   8.282   7.158
  654DIO     C336572   6.998   8.172   7.114
  654DIO     C436573   7.064   8.054   7.053
  654DIO     C536574   7.208   8.047   7.041
  654DIO     F236575   7.264   7.939   6.981
  654DIO     C636576   7.292   8.155   7.085
  654DIO     F336577   7.426   8.146   7.074
  654DIO     C736578   6.852   8.180   7.128
  654DIO     C836579   6.775   8.070   7.190
  654DIO     C936580   6.630   8.078   7.203
  654DIO    C1036581   6.558   8.190   7.146
  654DIO    C1136582   6.630   8.303   7.091
  654DIO    C1236583   6.774   8.296   7.080
  654DIO     F436584   6.839   8.400   7.024
  654DIO     O136585   6.425   8.202   7.183
  654DIO    C1336586   6.331   8.253   7.094
  654DIO     O236587   6.330   8.267   6.969
  654DIO    C1436588   6.202   8.279   7.159
  654DIO    C1536589   6.135   8.179   7.245
  654DIO     F536590   6.198   8.064   7.275
  654DIO    C1636591   6.005   8.201   7.304
  654DIO    C1736592   5.929   8.322   7.274
  654DIO    C1836593   5.998   8.429   7.203
  654DIO    C1936594   6.129   8.408   7.145
  654DIO     F636595   6.192   8.516   7.093
  654DIO    C2036596   5.788   8.341   7.325
  654DIO     O336597   5.718   8.219   7.350
  654DIO    C2136598   5.675   8.155   7.230
  654DIO    C2236599   5.586   8.248   7.148
  654DIO    C2336600   5.667   8.376   7.123
  654DIO     O436601   5.711   8.433   7.246
  654DIO    C2436602   5.453   8.283   7.219
  654DIO    C2536603   5.362   8.165   7.253
  654DIO    C2636604   5.324   8.080   7.133
  654DIO     H136605   7.045   8.372   7.201
  654DIO     H236606   7.003   7.975   7.010
  654DIO     H336607   6.826   7.985   7.231
  654DIO     H436608   6.575   8.001   7.256
  654DIO     H536609   6.576   8.388   7.054
  654DIO     H636610   5.967   8.128   7.374
  654DIO     H736611   5.955   8.529   7.196
  654DIO     H836612   5.798   8.389   7.423
  654DIO     H936613   5.761   8.123   7.171
  654DIO    H1036614   5.622   8.064   7.258
  654DIO    H1136615   5.563   8.202   7.052
  654DIO    H1236616   5.606   8.451   7.072
  654DIO    H1336617   5.753   8.355   7.058
  654DIO    H1436618   5.473   8.338   7.312
  654DIO    H1536619   5.397   8.352   7.155
  654DIO    H1636620   5.410   8.101   7.329
  654DIO    H1736621   5.271   8.204   7.299
  654DIO    H1836622   5.280   8.141   7.054
  654DIO    H1936623   5.411   8.027   7.092
  654DIO    H2036624   5.250   8.004   7.163
  655DIO     F136625   4.379   1.438   9.182
  655DIO     C136626   4.301   1.543   9.147
  655DIO     C236627   4.157   1.526   9.143
  655DIO     C336628   4.069   1.637   9.103
  655DIO     C436629   4.134   1.766   9.070
  655DIO     C536630   4.278   1.780   9.074
  655DIO     F236631   4.334   1.900   9.047
  655DIO     C636632   4.362   1.669   9.113
  655DIO     F336633   4.496   1.683   9.115
  655DIO     C736634   3.922   1.622   9.098
  655DIO     C836635   3.845   1.663   8.978
  655DIO     C936636   3.700   1.649   8.973
  655DIO    C1036637   3.628   1.603   9.090
  655DIO    C1136638   3.700   1.555   9.207
  655DIO    C1236639   3.844   1.567   9.211
  655DIO     F436640   3.909   1.527   9.322
  655DIO     O136641   3.496   1.569   9.071
  655DIO    C1336642   3.401   1.590   9.171
  655DIO     O236643   3.400   1.663   9.273
  655DIO    C1436644   3.272   1.528   9.141
  655DIO    C1536645   3.206   1.545   9.009
  655DIO     F536646   3.268   1.611   8.910
  655DIO    C1636647   3.075   1.489   8.980
  655DIO    C1736648   2.999   1.419   9.083
  655DIO    C1836649   3.068   1.386   9.208
  655DIO    C1936650   3.199   1.441   9.236
  655DIO     F636651   3.262   1.395   9.347
  655DIO    C2036652   2.858   1.371   9.058
  655DIO     O336653   2.789   1.446   8.958
  655DIO    C2136654   2.745   1.573   9.005
  655DIO    C2236655   2.656   1.558   9.128
  655DIO    C2336656   2.737   1.479   9.231
  655DIO     O436657   2.781   1.355   9.177
  655DIO    C2436658   2.523   1.485   9.098
  655DIO    C2536659   2.433   1.550   8.994
  655DIO    C2636660   2.394   1.694   9.027
  655DIO     H136661   4.115   1.430   9.170
  655DIO     H236662   4.073   1.854   9.049
  655DIO     H336663   3.897   1.699   8.890
  655DIO     H436664   3.645   1.670   8.883
  655DIO     H536665   3.646   1.516   9.292
  655DIO     H636666   3.037   1.498   8.879
  655DIO     H736667   3.025   1.317   9.278
  655DIO     H836668   2.868   1.269   9.016
  655DIO     H936669   2.832   1.636   9.027
  655DIO    H1036670   2.692   1.622   8.923
  655DIO    H1136671   2.634   1.657   9.169
  655DIO    H1236672   2.676   1.458   9.319
  655DIO    H1336673   2.823   1.538   9.266
  655DIO    H1436674   2.543   1.382   9.066
  655DIO    H1536675   2.467   1.476   9.192
  655DIO    H1636676   2.480   1.547   8.895
  655DIO    H1736677   2.341   1.491   8.985
  655DIO    H1836678   2.350   1.701   9.127
  655DIO    H1936679   2.481   1.760   9.022
  655DIO    H2036680   2.321   1.730   8.955
  656DIO     F136681   8.434   5.231   8.672
  656DIO     C136682   8.357   5.281   8.770
  656DIO     C236683   8.213   5.282   8.753
  656DIO     C336684   8.124   5.337   8.858
  656DIO     C436685   8.189   5.388   8.980
  656DIO     C536686   8.334   5.386   8.995
  656DIO     F236687   8.389   5.430   9.110
  656DIO     C636688   8.417   5.332   8.891
  656DIO     F336689   8.551   5.331   8.905
  656DIO     C736690   7.978   5.340   8.842
  656DIO     C836691   7.900   5.464   8.865
  656DIO     C936692   7.756   5.467   8.851
  656DIO    C1036693   7.683   5.345   8.822
  656DIO    C1136694   7.756   5.223   8.791
  656DIO    C1236695   7.900   5.221   8.803
  656DIO     F436696   7.965   5.105   8.779
  656DIO     O136697   7.551   5.360   8.786
  656DIO    C1336698   7.456   5.264   8.821
  656DIO     O236699   7.456   5.172   8.907
  656DIO    C1436700   7.327   5.284   8.754
  656DIO    C1536701   7.261   5.417   8.753
  656DIO     F536702   7.324   5.524   8.805
  656DIO    C1636703   7.130   5.438   8.694
  656DIO    C1736704   7.054   5.326   8.639
  656DIO    C1836705   7.123   5.198   8.624
  656DIO    C1936706   7.255   5.178   8.682
  656DIO     F636707   7.317   5.062   8.652
  656DIO    C2036708   6.914   5.344   8.587
  656DIO     O336709   6.844   5.454   8.647
  656DIO    C2136710   6.800   5.425   8.780
  656DIO    C2236711   6.711   5.301   8.782
  656DIO    C2336712   6.792   5.188   8.719
  656DIO     O436713   6.836   5.224   8.589
  656DIO    C2436714   6.579   5.321   8.706
  656DIO    C2536715   6.488   5.433   8.756
  656DIO    C2636716   6.450   5.421   8.903
  656DIO     H136717   8.170   5.241   8.662
  656DIO     H236718   8.129   5.421   9.064
  656DIO     H336719   7.952   5.556   8.889
  656DIO     H436720   7.701   5.560   8.859
  656DIO     H536721   7.701   5.133   8.764
  656DIO     H636722   7.092   5.539   8.688
  656DIO     H736723   7.080   5.119   8.565
  656DIO     H836724   6.923   5.371   8.481
  656DIO     H936725   6.887   5.412   8.845
  656DIO    H1036726   6.748   5.513   8.817
  656DIO    H1136727   6.689   5.275   8.886
  656DIO    H1236728   6.731   5.098   8.710
  656DIO    H1336729   6.878   5.162   8.782
  656DIO    H1436730   6.599   5.338   8.599
  656DIO    H1536731   6.522   5.227   8.711
  656DIO    H1636732   6.535   5.531   8.739
  656DIO    H1736733   6.396   5.433   8.696
  656DIO    H1836734   6.406   5.323   8.924
  656DIO    H1936735   6.536   5.435   8.968
  656DIO    H2036736   6.376   5.497   8.929
  657DIO     F136737   2.130   5.973   0.698
  657DIO     C136738   2.053   6.019   0.798
  657DIO     C236739   1.908   6.021   0.781
  657DIO     C336740   1.820   6.072   0.887
  657DIO     C436741   1.885   6.119   1.012
  657DIO     C536742   2.029   6.116   1.026
  657DIO     F236743   2.085   6.156   1.142
  657DIO     C636744   2.113   6.066   0.920
  657DIO     F336745   2.247   6.065   0.934
  657DIO     C736746   1.673   6.076   0.872
  657DIO     C836747   1.596   6.199   0.900
  657DIO     C936748   1.451   6.203   0.885
  657DIO    C1036749   1.379   6.082   0.852
  657DIO    C1136750   1.451   5.961   0.817
  657DIO    C1236751   1.595   5.958   0.829
  657DIO     F436752   1.660   5.843   0.801
  657DIO     O136753   1.247   6.097   0.816
  657DIO    C1336754   1.152   6.000   0.848
  657DIO     O236755   1.151   5.906   0.931
  657DIO    C1436756   1.023   6.024   0.782
  657DIO    C1536757   0.957   6.156   0.785
  657DIO     F536758   1.019   6.261   0.841
  657DIO    C1636759   0.826   6.179   0.727
  657DIO    C1736760   0.750   6.069   0.668
  657DIO    C1836761   0.819   5.942   0.649
  657DIO    C1936762   0.951   5.919   0.706
  657DIO     F636763   1.013   5.805   0.671
  657DIO    C2036764   0.609   6.089   0.617
  657DIO     O336765   0.540   6.197   0.681
  657DIO    C2136766   0.496   6.163   0.813
  657DIO    C2236767   0.407   6.040   0.811
  657DIO    C2336768   0.488   5.928   0.744
  657DIO     O436769   0.532   5.969   0.614
  657DIO    C2436770   0.274   6.061   0.735
  657DIO    C2536771   0.184   6.172   0.789
  657DIO    C2636772   0.145   6.154   0.935
  657DIO     H136773   1.866   5.984   0.688
  657DIO     H236774   1.825   6.149   1.097
  657DIO     H336775   1.648   6.290   0.927
  657DIO     H436776   1.396   6.295   0.897
  657DIO     H536777   1.397   5.872   0.787
  657DIO     H636778   0.788   6.281   0.725
  657DIO     H736779   0.776   5.864   0.587
  657DIO     H836780   0.619   6.120   0.512
  657DIO     H936781   0.583   6.148   0.878
  657DIO    H1036782   0.443   6.250   0.853
  657DIO    H1136783   0.385   6.009   0.914
  657DIO    H1236784   0.427   5.838   0.731
  657DIO    H1336785   0.574   5.900   0.805
  657DIO    H1436786   0.294   6.083   0.629
  657DIO    H1536787   0.218   5.967   0.736
  657DIO    H1636788   0.231   6.270   0.776
  657DIO    H1736789   0.092   6.174   0.729
  657DIO    H1836790   0.101   6.055   0.953
  657DIO    H1936791   0.232   6.166   1.001
  657DIO    H2036792   0.072   6.230   0.964
  658DIO     F136793   6.928   2.691   6.333
  658DIO     C136794   6.850   2.775   6.405
  658DIO     C236795   6.706   2.770   6.389
  658DIO     C336796   6.617   2.861   6.464
  658DIO     C436797   6.683   2.956   6.557
  658DIO     C536798   6.827   2.960   6.571
  658DIO     F236799   6.882   3.045   6.659
  658DIO     C636800   6.911   2.869   6.496
  658DIO     F336801   7.044   2.874   6.509
  658DIO     C736802   6.471   2.858   6.448
  658DIO     C836803   6.394   2.981   6.421
  658DIO     C936804   6.249   2.978   6.406
  658DIO    C1036805   6.176   2.855   6.427
  658DIO    C1136806   6.249   2.730   6.446
  658DIO    C1236807   6.393   2.733   6.459
  658DIO     F436808   6.458   2.617   6.481
  658DIO     O136809   6.044   2.854   6.388
  658DIO    C1336810   5.950   2.779   6.458
  658DIO     O236811   5.949   2.728   6.573
  658DIO    C1436812   5.821   2.773   6.389
  658DIO    C1536813   5.754   2.894   6.336
  658DIO     F536814   5.817   3.013   6.342
  658DIO    C1636815   5.623   2.890   6.273
  658DIO    C1736816   5.548   2.766   6.266
  658DIO    C1836817   5.616   2.643   6.302
  658DIO    C1936818   5.748   2.646   6.363
  658DIO     F636819   5.811   2.527   6.380
  658DIO    C2036820   5.407   2.763   6.211
  658DIO     O336821   5.337   2.887   6.224
  658DIO    C2136822   5.294   2.912   6.357
  658DIO    C2236823   5.205   2.799   6.408
  658DIO    C2336824   5.285   2.670   6.394
  658DIO     O436825   5.330   2.652   6.260
  658DIO    C2436826   5.072   2.787   6.330
  658DIO    C2536827   4.981   2.910   6.332
  658DIO    C2636828   4.943   2.956   6.472
  658DIO     H136829   6.663   2.697   6.320
  658DIO     H236830   6.622   3.019   6.621
  658DIO     H336831   6.445   3.075   6.407
  658DIO     H436832   6.194   3.067   6.378
  658DIO     H536833   6.194   2.637   6.457
  658DIO     H636834   5.585   2.982   6.228
  658DIO     H736835   5.574   2.546   6.278
  658DIO     H836836   5.417   2.746   6.103
  658DIO     H936837   5.380   2.925   6.423
  658DIO    H1036838   5.241   3.008   6.358
  658DIO    H1136839   5.182   2.815   6.514
  658DIO    H1236840   5.224   2.583   6.420
  658DIO    H1336841   5.372   2.670   6.462
  658DIO    H1436842   5.092   2.762   6.225
  658DIO    H1536843   5.015   2.702   6.371
  658DIO    H1636844   5.029   2.993   6.279
  658DIO    H1736845   4.889   2.887   6.277
  658DIO    H1836846   4.899   2.873   6.530
  658DIO    H1936847   5.029   2.994   6.527
  658DIO    H2036848   4.869   3.036   6.467
  659DIO     F136849   7.416   0.149   5.739
  659DIO     C136850   7.338   0.144   5.849
  659DIO     C236851   7.194   0.153   5.835
  659DIO     C336852   7.105   0.150   5.953
  659DIO     C436853   7.171   0.135   6.086
  659DIO     C536854   7.315   0.125   6.097
  659DIO     F236855   7.371   0.107   6.218
  659DIO     C636856   7.399   0.129   5.979
  659DIO     F336857   7.533   0.122   5.992
  659DIO     C736858   6.959   0.160   5.941
  659DIO     C836859   6.882   0.257   6.023
  659DIO     C936860   6.737   0.267   6.011
  659DIO    C1036861   6.665   0.174   5.926
  659DIO    C1136862   6.737   0.083   5.839
  659DIO    C1236863   6.881   0.075   5.849
  659DIO     F436864   6.946  -0.014   5.771
  659DIO     O136865   6.532   0.205   5.902
  659DIO    C1336866   6.438   0.104   5.885
  659DIO     O236867   6.437  -0.018   5.916
  659DIO    C1436868   6.309   0.155   5.837
  659DIO    C1536869   6.242   0.271   5.901
  659DIO     F536870   6.305   0.339   5.999
  659DIO    C1636871   6.112   0.319   5.860
  659DIO    C1736872   6.036   0.248   5.757
  659DIO    C1836873   6.105   0.144   5.682
  659DIO    C1936874   6.236   0.097   5.722
  659DIO     F636875   6.299   0.011   5.639
  659DIO    C2036876   5.895   0.289   5.721
  659DIO     O336877   5.825   0.355   5.827
  659DIO    C2136878   5.782   0.265   5.929
  659DIO    C2236879   5.693   0.156   5.870
  659DIO    C2336880   5.774   0.088   5.760
  659DIO     O436881   5.818   0.183   5.663
  659DIO    C2436882   5.560   0.210   5.813
  659DIO    C2536883   5.469   0.284   5.912
  659DIO    C2636884   5.431   0.201   6.033
  659DIO     H136885   7.152   0.162   5.736
  659DIO     H236886   7.110   0.122   6.175
  659DIO     H336887   6.933   0.326   6.088
  659DIO     H436888   6.682   0.343   6.064
  659DIO     H536889   6.683   0.018   5.772
  659DIO     H636890   6.074   0.410   5.904
  659DIO     H736891   6.062   0.103   5.591
  659DIO     H836892   5.905   0.364   5.642
  659DIO     H936893   5.868   0.221   5.979
  659DIO    H1036894   5.729   0.323   6.005
  659DIO    H1136895   5.670   0.082   5.948
  659DIO    H1236896   5.713   0.014   5.707
  659DIO    H1336897   5.860   0.034   5.801
  659DIO    H1436898   5.580   0.278   5.729
  659DIO    H1536899   5.504   0.126   5.771
  659DIO    H1636900   5.517   0.377   5.945
  659DIO    H1736901   5.378   0.313   5.859
  659DIO    H1836902   5.387   0.105   6.004
  659DIO    H1936903   5.518   0.181   6.097
  659DIO    H2036904   5.357   0.255   6.094
  660DIO     F136905   8.106   5.815   6.722
  660DIO     C136906   8.029   5.785   6.828
  660DIO     C236907   7.884   5.797   6.816
  660DIO     C336908   7.796   5.767   6.931
  660DIO     C436909   7.861   5.722   7.056
  660DIO     C536910   8.005   5.710   7.065
  660DIO     F236911   8.061   5.665   7.179
  660DIO     C636912   8.089   5.741   6.951
  660DIO     F336913   8.223   5.731   6.961
  660DIO     C736914   7.649   5.780   6.921
  660DIO     C836915   7.572   5.856   7.022
  660DIO     C936916   7.427   5.868   7.013
  660DIO    C1036917   7.355   5.797   6.909
  660DIO    C1136918   7.427   5.729   6.804
  660DIO    C1236919   7.571   5.719   6.812
  660DIO     F436920   7.636   5.650   6.716
  660DIO     O136921   7.223   5.833   6.893
  660DIO    C1336922   7.128   5.738   6.853
  660DIO     O236923   7.127   5.612   6.855
  660DIO    C1436924   6.999   5.799   6.819
  660DIO    C1536925   6.933   5.897   6.907
  660DIO     F536926   6.995   5.941   7.018
  660DIO    C1636927   6.802   5.953   6.878
  660DIO    C1736928   6.726   5.907   6.762
  660DIO    C1836929   6.795   5.824   6.665
  660DIO    C1936930   6.927   5.769   6.693
  660DIO     F636931   6.989   5.704   6.592
  660DIO    C2036932   6.585   5.956   6.736
  660DIO     O336933   6.516   5.996   6.855
  660DIO    C2136934   6.472   5.885   6.933
  660DIO    C2236935   6.383   5.792   6.851
  660DIO    C2336936   6.464   5.751   6.728
  660DIO     O436937   6.508   5.866   6.656
  660DIO    C2436938   6.250   5.858   6.807
  660DIO    C2536939   6.160   5.907   6.921
  660DIO    C2636940   6.121   5.798   7.020
  660DIO     H136941   7.842   5.829   6.722
  660DIO     H236942   7.801   5.689   7.139
  660DIO     H336943   7.624   5.907   7.102
  660DIO     H436944   7.372   5.930   7.083
  660DIO     H536945   7.373   5.681   6.724
  660DIO     H636946   6.764   6.031   6.942
  660DIO     H736947   6.752   5.805   6.567
  660DIO     H836948   6.595   6.047   6.677
  660DIO     H936949   6.559   5.831   6.972
  660DIO    H1036950   6.419   5.924   7.020
  660DIO    H1136951   6.361   5.702   6.909
  660DIO    H1236952   6.403   5.691   6.660
  660DIO    H1336953   6.550   5.690   6.756
  660DIO    H1436954   6.270   5.943   6.741
  660DIO    H1536955   6.194   5.786   6.747
  660DIO    H1636956   6.207   5.990   6.974
  660DIO    H1736957   6.068   5.948   6.876
  660DIO    H1836958   6.077   5.712   6.969
  660DIO    H1936959   6.208   5.764   7.078
  660DIO    H2036960   6.048   5.837   7.091
  661DIO     F136961   8.566   9.763   0.570
  661DIO     C136962   8.488   9.681   0.642
  661DIO     C236963   8.344   9.697   0.639
  661DIO     C336964   8.255   9.610   0.719
  661DIO     C436965   8.321   9.505   0.801
  661DIO     C536966   8.465   9.490   0.802
  661DIO     F236967   8.520   9.391   0.874
  661DIO     C636968   8.549   9.577   0.723
  661DIO     F336969   8.682   9.563   0.726
  661DIO     C736970   8.109   9.626   0.718
  661DIO     C836971   8.032   9.635   0.844
  661DIO     C936972   7.887   9.651   0.843
  661DIO    C1036973   7.814   9.647   0.718
  661DIO    C1136974   7.887   9.646   0.592
  661DIO    C1236975   8.031   9.633   0.593
  661DIO     F436976   8.096   9.627   0.475
  661DIO     O136977   7.682   9.686   0.723
  661DIO    C1336978   7.588   9.627   0.639
  661DIO     O236979   7.587   9.520   0.573
  661DIO    C1436980   7.458   9.697   0.642
  661DIO    C1536981   7.392   9.732   0.770
  661DIO     F536982   7.455   9.710   0.887
  661DIO    C1636983   7.261   9.795   0.775
  661DIO    C1736984   7.186   9.819   0.653
  661DIO    C1836985   7.254   9.801   0.525
  661DIO    C1936986   7.386   9.740   0.520
  661DIO     F636987   7.448   9.739   0.401
  661DIO    C2036988   7.045   9.874   0.657
  661DIO     O336989   6.975   9.844   0.779
  661DIO    C2136990   6.931   9.708   0.785
  661DIO    C2236991   6.843   9.674   0.666
  661DIO    C2336992   6.923   9.706   0.540
  661DIO     O436993   6.968   9.841   0.541
  661DIO    C2436994   6.710   9.753   0.665
  661DIO    C2536995   6.619   9.733   0.786
  661DIO    C2636996   6.581   9.588   0.812
  661DIO     H136997   8.301   9.775   0.577
  661DIO     H236998   8.260   9.432   0.854
  661DIO     H336999   8.083   9.636   0.940
  661DIO     H437000   7.832   9.666   0.935
  661DIO     H537001   7.832   9.648   0.499
  661DIO     H637002   7.223   9.826   0.871
  661DIO     H737003   7.211   9.838   0.433
  661DIO     H837004   7.055   9.983   0.656
  661DIO     H937005   7.018   9.642   0.789
  661DIO    H1037006   6.879   9.694   0.880
  661DIO    H1137007   6.820   9.567   0.667
  661DIO    H1237008   6.862   9.692   0.450
  661DIO    H1337009   7.009   9.639   0.531
  661DIO    H1437010   6.730   9.861   0.654
  661DIO    H1537011   6.653   9.724   0.575
  661DIO    H1637012   6.666   9.775   0.876
  661DIO    H1737013   6.527   9.791   0.771
  661DIO    H1837014   6.537   9.543   0.722
  661DIO    H1937015   6.667   9.529   0.842
  661DIO    H2037016   6.507   9.583   0.892
  662DIO     F137017   5.880   9.474   0.673
  662DIO     C137018   5.803   9.568   0.730
  662DIO     C237019   5.659   9.560   0.715
  662DIO     C337020   5.570   9.663   0.774
  662DIO     C437021   5.635   9.772   0.850
  662DIO     C537022   5.780   9.778   0.863
  662DIO     F237023   5.835   9.877   0.936
  662DIO     C637024   5.863   9.677   0.804
  662DIO     F337025   5.997   9.684   0.816
  662DIO     C737026   5.423   9.657   0.759
  662DIO     C837027   5.346   9.775   0.712
  662DIO     C937028   5.202   9.769   0.698
  662DIO    C1037029   5.129   9.651   0.739
  662DIO    C1137030   5.202   9.531   0.778
  662DIO    C1237031   5.346   9.536   0.790
  662DIO     F437032   5.411   9.425   0.832
  662DIO     O137033   4.997   9.643   0.701
  662DIO    C1337034   4.902   9.581   0.782
  662DIO     O237035   4.901   9.550   0.904
  662DIO    C1437036   4.773   9.563   0.714
  662DIO    C1537037   4.707   9.674   0.642
  662DIO     F537038   4.770   9.793   0.628
  662DIO    C1637039   4.576   9.660   0.581
  662DIO    C1737040   4.500   9.536   0.595
  662DIO    C1837041   4.569   9.421   0.651
  662DIO    C1937042   4.701   9.434   0.711
  662DIO     F637043   4.763   9.320   0.747
  662DIO    C2037044   4.360   9.524   0.541
  662DIO     O337045   4.290   9.649   0.533
  662DIO    C2137046   4.246   9.696   0.660
  662DIO    C2237047   4.157   9.593   0.729
  662DIO    C2337048   4.238   9.463   0.737
  662DIO     O437049   4.282   9.423   0.607
  662DIO    C2437050   4.025   9.568   0.654
  662DIO    C2537051   3.934   9.690   0.636
  662DIO    C2637052   3.895   9.758   0.767
  662DIO     H137053   5.616   9.477   0.660
  662DIO     H237054   5.575   9.845   0.903
  662DIO     H337055   5.398   9.865   0.682
  662DIO     H437056   5.147   9.852   0.655
  662DIO     H537057   5.147   9.441   0.804
  662DIO     H637058   4.538   9.743   0.522
  662DIO     H737059   4.526   9.322   0.644
  662DIO     H837060   4.369   9.490   0.437
  662DIO     H937061   4.333   9.720   0.723
  662DIO    H1037062   4.193   9.790   0.645
  662DIO    H1137063   4.135   9.626   0.831
  662DIO    H1237064   4.177   9.382   0.777
  662DIO    H1337065   4.324   9.475   0.804
  662DIO    H1437066   4.044   9.526   0.555
  662DIO    H1537067   3.968   9.491   0.709
  662DIO    H1637068   3.981   9.763   0.569
  662DIO    H1737069   3.842   9.657   0.585
  662DIO    H1837070   3.852   9.686   0.837
  662DIO    H1937071   3.982   9.805   0.814
  662DIO    H2037072   3.822   9.836   0.748
  663DIO     F137073   8.186   4.235   9.583
  663DIO     C137074   8.108   4.251   9.475
  663DIO     C237075   7.964   4.240   9.488
  663DIO     C337076   7.875   4.256   9.370
  663DIO     C437077   7.941   4.285   9.241
  663DIO     C537078   8.085   4.295   9.230
  663DIO     F237079   8.140   4.325   9.111
  663DIO     C637080   8.169   4.279   9.347
  663DIO     F337081   8.302   4.287   9.335
  663DIO     C737082   7.729   4.244   9.381
  663DIO     C837083   7.652   4.156   9.291
  663DIO     C937084   7.507   4.145   9.301
  663DIO    C1037085   7.434   4.229   9.395
  663DIO    C1137086   7.507   4.310   9.491
  663DIO    C1237087   7.651   4.319   9.482
  663DIO     F437088   7.716   4.400   9.568
  663DIO     O137089   7.302   4.196   9.416
  663DIO    C1337090   7.208   4.294   9.443
  663DIO     O237091   7.207   4.419   9.425
  663DIO    C1437092   7.078   4.239   9.485
  663DIO    C1537093   7.012   4.130   9.410
  663DIO     F537094   7.075   4.072   9.306
  663DIO    C1637095   6.881   4.078   9.446
  663DIO    C1737096   6.806   4.138   9.556
  663DIO    C1837097   6.874   4.234   9.641
  663DIO    C1937098   7.006   4.284   9.606
  663DIO     F637099   7.068   4.361   9.698
  663DIO    C2037100   6.665   4.093   9.587
  663DIO     O337101   6.595   4.039   9.475
  663DIO    C2137102   6.551   4.139   9.383
  663DIO    C2237103   6.463   4.241   9.453
  663DIO    C2337104   6.543   4.297   9.570
  663DIO     O437105   6.588   4.193   9.655
  663DIO    C2437106   6.330   4.181   9.504
  663DIO    C2537107   6.239   4.118   9.398
  663DIO    C2637108   6.201   4.213   9.286
  663DIO     H137109   7.921   4.221   9.586
  663DIO     H237110   7.880   4.306   9.153
  663DIO     H337111   7.703   4.095   9.218
  663DIO     H437112   7.452   4.075   9.241
  663DIO     H537113   7.452   4.368   9.564
  663DIO     H637114   6.843   3.992   9.393
  663DIO     H737115   6.831   4.265   9.736
  663DIO     H837116   6.675   4.010   9.658
  663DIO     H937117   6.638   4.187   9.337
  663DIO    H1037118   6.499   4.088   9.302
  663DIO    H1137119   6.440   4.323   9.383
  663DIO    H1237120   6.482   4.366   9.629
  663DIO    H1337121   6.629   4.355   9.533
  663DIO    H1437122   6.350   4.105   9.581
  663DIO    H1537123   6.273   4.261   9.554
  663DIO    H1637124   6.286   4.029   9.356
  663DIO    H1737125   6.147   4.084   9.447
  663DIO    H1837126   6.157   4.306   9.325
  663DIO    H1937127   6.287   4.240   9.224
  663DIO    H2037128   6.127   4.166   9.220
  664DIO     F137129   3.078   0.860   1.806
  664DIO     C137130   3.000   0.867   1.697
  664DIO     C237131   2.856   0.858   1.711
  664DIO     C337132   2.767   0.863   1.592
  664DIO     C437133   2.833   0.880   1.461
  664DIO     C537134   2.977   0.890   1.449
  664DIO     F237135   3.033   0.909   1.328
  664DIO     C637136   3.061   0.884   1.567
  664DIO     F337137   3.195   0.891   1.555
  664DIO     C737138   2.621   0.852   1.604
  664DIO     C837139   2.544   0.757   1.522
  664DIO     C937140   2.399   0.747   1.533
  664DIO    C1037141   2.327   0.838   1.619
  664DIO    C1137142   2.399   0.928   1.708
  664DIO    C1237143   2.543   0.936   1.698
  664DIO     F437144   2.608   1.024   1.777
  664DIO     O137145   2.194   0.807   1.643
  664DIO    C1337146   2.100   0.908   1.662
  664DIO     O237147   2.099   1.030   1.633
  664DIO    C1437148   1.971   0.856   1.708
  664DIO    C1537149   1.904   0.741   1.643
  664DIO     F537150   1.967   0.674   1.544
  664DIO    C1637151   1.774   0.693   1.683
  664DIO    C1737152   1.698   0.762   1.787
  664DIO    C1837153   1.767   0.865   1.864
  664DIO    C1937154   1.898   0.912   1.825
  664DIO     F637155   1.961   0.997   1.909
  664DIO    C2037156   1.557   0.720   1.822
  664DIO     O337157   1.487   0.656   1.715
  664DIO    C2137158   1.444   0.747   1.615
  664DIO    C2237159   1.355   0.855   1.676
  664DIO    C2337160   1.436   0.922   1.787
  664DIO     O437161   1.480   0.825   1.882
  664DIO    C2437162   1.222   0.800   1.732
  664DIO    C2537163   1.131   0.728   1.632
  664DIO    C2637164   1.093   0.813   1.512
  664DIO     H137165   2.814   0.847   1.810
  664DIO     H237166   2.772   0.894   1.372
  664DIO     H337167   2.595   0.689   1.455
  664DIO     H437168   2.344   0.671   1.479
  664DIO     H537169   2.345   0.992   1.776
  664DIO     H637170   1.736   0.602   1.637
  664DIO     H737171   1.724   0.904   1.956
  664DIO     H837172   1.567   0.643   1.900
  664DIO     H937173   1.530   0.792   1.566
  664DIO    H1037174   1.391   0.690   1.538
  664DIO    H1137175   1.332   0.931   1.599
  664DIO    H1237176   1.375   0.995   1.841
  664DIO    H1337177   1.522   0.976   1.746
  664DIO    H1437178   1.242   0.731   1.815
  664DIO    H1537179   1.166   0.884   1.775
  664DIO    H1637180   1.179   0.636   1.597
  664DIO    H1737181   1.040   0.698   1.684
  664DIO    H1837182   1.049   0.909   1.543
  664DIO    H1937183   1.180   0.834   1.448
  664DIO    H2037184   1.019   0.760   1.450
  665DIO     F137185   2.130   7.929   7.850
  665DIO     C137186   2.053   7.950   7.958
  665DIO     C237187   1.908   7.956   7.942
  665DIO     C337188   1.820   7.981   8.057
  665DIO     C437189   1.885   7.998   8.189
  665DIO     C537190   2.029   7.992   8.203
  665DIO     F237191   2.085   8.003   8.325
  665DIO     C637192   2.113   7.967   8.088
  665DIO     F337193   2.247   7.963   8.101
  665DIO     C737194   1.673   7.988   8.043
  665DIO     C837195   1.596   8.102   8.099
  665DIO     C937196   1.451   8.108   8.085
  665DIO    C1037197   1.379   7.998   8.025
  665DIO    C1137198   1.451   7.889   7.963
  665DIO    C1237199   1.595   7.884   7.974
  665DIO     F437200   1.660   7.778   7.920
  665DIO     O137201   1.247   8.022   7.994
  665DIO    C1337202   1.152   7.920   8.002
  665DIO     O237203   1.151   7.809   8.061
  665DIO    C1437204   1.023   7.958   7.944
  665DIO    C1537205   0.957   8.086   7.977
  665DIO     F537206   1.019   8.176   8.056
  665DIO    C1637207   0.826   8.122   7.926
  665DIO    C1737208   0.750   8.029   7.844
  665DIO    C1837209   0.819   7.910   7.795
  665DIO    C1937210   0.951   7.875   7.845
  665DIO     F637211   1.013   7.771   7.785
  665DIO    C2037212   0.609   8.061   7.799
  665DIO     O337213   0.540   8.150   7.886
  665DIO    C2137214   0.496   8.087   8.006
  665DIO    C2237215   0.407   7.967   7.975
  665DIO    C2337216   0.488   7.875   7.884
  665DIO     O437217   0.532   7.944   7.768
  665DIO    C2437218   0.274   8.006   7.906
  665DIO    C2537219   0.184   8.101   7.985
  665DIO    C2637220   0.145   8.049   8.123
  665DIO     H137221   1.866   7.941   7.843
  665DIO     H237222   1.825   8.007   8.279
  665DIO     H337223   1.648   8.184   8.146
  665DIO     H437224   1.396   8.195   8.119
  665DIO     H537225   1.397   7.810   7.913
  665DIO     H637226   0.788   8.221   7.948
  665DIO     H737227   0.776   7.849   7.717
  665DIO     H837228   0.619   8.115   7.704
  665DIO     H937229   0.583   8.057   8.065
  665DIO    H1037230   0.443   8.162   8.066
  665DIO    H1137231   0.385   7.914   8.068
  665DIO    H1237232   0.427   7.790   7.851
  665DIO    H1337233   0.574   7.833   7.938
  665DIO    H1437234   0.294   8.051   7.809
  665DIO    H1537235   0.218   7.914   7.886
  665DIO    H1637236   0.231   8.199   7.995
  665DIO    H1737237   0.092   8.117   7.927
  665DIO    H1837238   0.101   7.949   8.117
  665DIO    H1937239   0.232   8.045   8.190
  665DIO    H2037240   0.072   8.116   8.169
  666DIO     F137241   6.582   5.062   1.531
  666DIO     C137242   6.504   5.084   1.639
  666DIO     C237243   6.360   5.090   1.623
  666DIO     C337244   6.271   5.117   1.738
  666DIO     C437245   6.337   5.135   1.870
  666DIO     C537246   6.481   5.130   1.883
  666DIO     F237247   6.537   5.143   2.005
  666DIO     C637248   6.565   5.104   1.769
  666DIO     F337249   6.699   5.099   1.782
  666DIO     C737250   6.125   5.124   1.724
  666DIO     C837251   6.048   5.238   1.778
  666DIO     C937252   5.903   5.245   1.764
  666DIO    C1037253   5.831   5.134   1.706
  666DIO    C1137254   5.903   5.023   1.645
  666DIO    C1237255   6.047   5.018   1.656
  666DIO     F437256   6.112   4.912   1.604
  666DIO     O137257   5.698   5.157   1.674
  666DIO    C1337258   5.604   5.055   1.684
  666DIO     O237259   5.603   4.945   1.744
  666DIO    C1437260   5.475   5.092   1.625
  666DIO    C1537261   5.409   5.221   1.657
  666DIO     F537262   5.471   5.312   1.734
  666DIO    C1637263   5.278   5.256   1.605
  666DIO    C1737264   5.202   5.162   1.524
  666DIO    C1837265   5.271   5.042   1.477
  666DIO    C1937266   5.402   5.007   1.528
  666DIO     F637267   5.465   4.903   1.469
  666DIO    C2037268   5.061   5.193   1.478
  666DIO     O337269   4.992   5.283   1.564
  666DIO    C2137270   4.948   5.222   1.685
  666DIO    C2237271   4.859   5.102   1.656
  666DIO    C2337272   4.940   5.008   1.567
  666DIO     O437273   4.984   5.076   1.449
  666DIO    C2437274   4.726   5.139   1.587
  666DIO    C2537275   4.636   5.236   1.664
  666DIO    C2637276   4.597   5.186   1.803
  666DIO     H137277   6.318   5.074   1.525
  666DIO     H237278   6.276   5.146   1.959
  666DIO     H337279   6.099   5.321   1.824
  666DIO     H437280   5.848   5.332   1.796
  666DIO     H537281   5.849   4.944   1.596
  666DIO     H637282   5.240   5.356   1.625
  666DIO     H737283   5.228   4.980   1.399
  666DIO     H837284   5.071   5.245   1.383
  666DIO     H937285   5.035   5.192   1.745
  666DIO    H1037286   4.895   5.298   1.744
  666DIO    H1137287   4.836   5.050   1.750
  666DIO    H1237288   4.879   4.923   1.535
  666DIO    H1337289   5.026   4.967   1.621
  666DIO    H1437290   4.746   5.184   1.489
  666DIO    H1537291   4.670   5.047   1.568
  666DIO    H1637292   4.683   5.334   1.672
  666DIO    H1737293   4.544   5.251   1.606
  666DIO    H1837294   4.553   5.086   1.798
  666DIO    H1937295   4.684   5.183   1.870
  666DIO    H2037296   4.523   5.254   1.848
  667DIO     F137297   3.635   5.658   2.800
  667DIO     C137298   3.557   5.548   2.808
  667DIO     C237299   3.413   5.563   2.815
  667DIO     C337300   3.325   5.445   2.826
  667DIO     C437301   3.390   5.312   2.826
  667DIO     C537302   3.534   5.300   2.818
  667DIO     F237303   3.590   5.177   2.814
  667DIO     C637304   3.618   5.417   2.809
  667DIO     F337305   3.752   5.404   2.803
  667DIO     C737306   3.178   5.458   2.835
  667DIO     C837307   3.101   5.389   2.940
  667DIO     C937308   2.956   5.401   2.949
  667DIO    C1037309   2.884   5.475   2.847
  667DIO    C1137310   2.956   5.551   2.747
  667DIO    C1237311   3.100   5.540   2.740
  667DIO     F437312   3.165   5.607   2.642
  667DIO     O137313   2.752   5.503   2.875
  667DIO    C1337314   2.657   5.508   2.772
  667DIO     O237315   2.656   5.463   2.655
  667DIO    C1437316   2.528   5.561   2.818
  667DIO    C1537317   2.462   5.511   2.940
  667DIO     F537318   2.524   5.422   3.019
  667DIO    C1637319   2.331   5.557   2.983
  667DIO    C1737320   2.255   5.651   2.901
  667DIO    C1837321   2.324   5.714   2.789
  667DIO    C1937322   2.455   5.669   2.747
  667DIO     F637323   2.518   5.742   2.652
  667DIO    C2037324   2.114   5.692   2.938
  667DIO     O337325   2.045   5.594   3.015
  667DIO    C2137326   2.001   5.483   2.938
  667DIO    C2237327   1.912   5.528   2.822
  667DIO    C2337328   1.993   5.630   2.742
  667DIO     O437329   2.037   5.737   2.826
  667DIO    C2437330   1.779   5.592   2.870
  667DIO    C2537331   1.689   5.502   2.954
  667DIO    C2637332   1.650   5.371   2.886
  667DIO     H137333   3.371   5.663   2.813
  667DIO     H237334   3.329   5.222   2.823
  667DIO     H337335   3.153   5.331   3.016
  667DIO     H437336   2.901   5.357   3.031
  667DIO     H537337   2.902   5.610   2.674
  667DIO     H637338   2.293   5.524   3.078
  667DIO     H737339   2.281   5.800   2.738
  667DIO     H837340   2.124   5.779   3.003
  667DIO     H937341   2.088   5.428   2.900
  667DIO    H1037342   1.948   5.414   3.004
  667DIO    H1137343   1.890   5.443   2.758
  667DIO    H1237344   1.932   5.674   2.662
  667DIO    H1337345   2.079   5.583   2.694
  667DIO    H1437346   1.799   5.683   2.927
  667DIO    H1537347   1.723   5.623   2.781
  667DIO    H1637348   1.736   5.480   3.050
  667DIO    H1737349   1.597   5.557   2.977
  667DIO    H1837350   1.606   5.390   2.787
  667DIO    H1937351   1.737   5.306   2.873
  667DIO    H2037352   1.577   5.318   2.946
  668DIO     F137353   4.868   0.587   3.065
  668DIO     C137354   4.790   0.696   3.074
  668DIO     C237355   4.646   0.683   3.064
  668DIO     C337356   4.557   0.801   3.070
  668DIO     C437357   4.623   0.932   3.090
  668DIO     C537358   4.767   0.944   3.099
  668DIO     F237359   4.822   1.064   3.120
  668DIO     C637360   4.851   0.826   3.092
  668DIO     F337361   4.984   0.838   3.099
  668DIO     C737362   4.411   0.789   3.060
  668DIO     C837363   4.334   0.873   2.965
  668DIO     C937364   4.189   0.862   2.955
  668DIO    C1037365   4.116   0.774   3.045
  668DIO    C1137366   4.189   0.685   3.134
  668DIO    C1237367   4.333   0.694   3.142
  668DIO     F437368   4.398   0.614   3.229
  668DIO     O137369   3.984   0.750   3.014
  668DIO    C1337370   3.890   0.731   3.114
  668DIO     O237371   3.889   0.758   3.237
  668DIO    C1437372   3.760   0.685   3.062
  668DIO    C1537373   3.694   0.752   2.948
  668DIO     F537374   3.757   0.852   2.882
  668DIO    C1637375   3.563   0.712   2.899
  668DIO    C1737376   3.488   0.607   2.967
  668DIO    C1837377   3.556   0.529   3.069
  668DIO    C1937378   3.688   0.568   3.116
  668DIO     F637379   3.750   0.482   3.200
  668DIO    C2037380   3.347   0.573   2.925
  668DIO     O337381   3.277   0.681   2.862
  668DIO    C2137382   3.233   0.779   2.954
  668DIO    C2237383   3.145   0.718   3.062
  668DIO    C2337384   3.225   0.605   3.127
  668DIO     O437385   3.270   0.512   3.029
  668DIO    C2437386   3.012   0.662   3.006
  668DIO    C2537387   2.921   0.763   2.936
  668DIO    C2637388   2.883   0.882   3.022
  668DIO     H137389   4.603   0.584   3.052
  668DIO     H237390   4.562   1.021   3.105
  668DIO     H337391   4.385   0.941   2.899
  668DIO     H437392   4.134   0.917   2.880
  668DIO     H537393   4.134   0.616   3.197
  668DIO     H637394   3.525   0.759   2.809
  668DIO     H737395   3.513   0.437   3.107
  668DIO     H837396   3.357   0.496   2.847
  668DIO     H937397   3.320   0.829   3.000
  668DIO    H1037398   3.181   0.857   2.898
  668DIO    H1137399   3.122   0.793   3.138
  668DIO    H1237400   3.164   0.551   3.199
  668DIO    H1337401   3.311   0.646   3.181
  668DIO    H1437402   3.032   0.580   2.936
  668DIO    H1537403   2.955   0.618   3.089
  668DIO    H1637404   2.968   0.799   2.843
  668DIO    H1737405   2.829   0.711   2.905
  668DIO    H1837406   2.839   0.850   3.117
  668DIO    H1937407   2.969   0.946   3.044
  668DIO    H2037408   2.809   0.944   2.970
  669DIO     F137409   5.964   8.500   5.992
  669DIO     C137410   5.886   8.564   5.902
  669DIO     C237411   5.742   8.548   5.909
  669DIO     C337412   5.653   8.615   5.812
  669DIO     C437413   5.719   8.700   5.709
  669DIO     C537414   5.863   8.714   5.705
  669DIO     F237415   5.918   8.795   5.613
  669DIO     C637416   5.947   8.647   5.801
  669DIO     F337417   6.080   8.660   5.795
  669DIO     C737418   5.507   8.600   5.816
  669DIO     C837419   5.430   8.563   5.695
  669DIO     C937420   5.285   8.549   5.700
  669DIO    C1037421   5.212   8.580   5.821
  669DIO    C1137422   5.285   8.609   5.944
  669DIO    C1237423   5.429   8.621   5.940
  669DIO     F437424   5.494   8.654   6.054
  669DIO     O137425   5.080   8.541   5.825
  669DIO    C1337426   4.986   8.617   5.894
  669DIO     O237427   4.985   8.736   5.935
  669DIO    C1437428   4.856   8.548   5.906
  669DIO    C1537429   4.790   8.485   5.790
  669DIO     F537430   4.853   8.481   5.670
  669DIO    C1637431   4.659   8.423   5.798
  669DIO    C1737432   4.584   8.427   5.923
  669DIO    C1837433   4.652   8.473   6.043
  669DIO    C1937434   4.784   8.534   6.035
  669DIO     F637435   4.846   8.561   6.151
  669DIO    C2037436   4.443   8.372   5.931
  669DIO     O337437   4.373   8.375   5.806
  669DIO    C2137438   4.329   8.505   5.770
  669DIO    C2237439   4.241   8.565   5.878
  669DIO    C2337440   4.321   8.562   6.008
  669DIO     O437441   4.366   8.430   6.037
  669DIO    C2437442   4.108   8.488   5.897
  669DIO    C2537443   4.017   8.481   5.774
  669DIO    C2637444   3.979   8.616   5.717
  669DIO     H137445   5.699   8.487   5.987
  669DIO     H237446   5.658   8.759   5.641
  669DIO     H337447   5.481   8.541   5.603
  669DIO     H437448   5.230   8.513   5.614
  669DIO     H537449   5.230   8.627   6.035
  669DIO     H637450   4.621   8.371   5.711
  669DIO     H737451   4.609   8.457   6.141
  669DIO     H837452   4.453   8.266   5.956
  669DIO     H937453   4.416   8.570   5.751
  669DIO    H1037454   4.277   8.498   5.674
  669DIO    H1137455   4.218   8.669   5.854
  669DIO    H1237456   4.260   8.596   6.092
  669DIO    H1337457   4.407   8.630   6.002
  669DIO    H1437458   4.128   8.386   5.931
  669DIO    H1537459   4.051   8.536   5.978
  669DIO    H1637460   4.064   8.420   5.695
  669DIO    H1737461   3.925   8.427   5.802
  669DIO    H1837462   3.935   8.681   5.794
  669DIO    H1937463   4.065   8.668   5.674
  669DIO    H2037464   3.905   8.604   5.637
  670DIO     F137465   3.036   7.146   9.045
  670DIO     C137466   2.959   7.210   8.956
  670DIO     C237467   2.815   7.195   8.963
  670DIO     C337468   2.726   7.262   8.865
  670DIO     C437469   2.791   7.346   8.763
  670DIO     C537470   2.936   7.360   8.758
  670DIO     F237471   2.991   7.442   8.666
  670DIO     C637472   3.019   7.293   8.855
  670DIO     F337473   3.153   7.306   8.848
  670DIO     C737474   2.579   7.246   8.870
  670DIO     C837475   2.502   7.209   8.749
  670DIO     C937476   2.358   7.195   8.753
  670DIO    C1037477   2.285   7.226   8.875
  670DIO    C1137478   2.357   7.256   8.997
  670DIO    C1237479   2.502   7.268   8.994
  670DIO     F437480   2.566   7.300   9.107
  670DIO     O137481   2.153   7.187   8.879
  670DIO    C1337482   2.058   7.263   8.948
  670DIO     O237483   2.057   7.382   8.988
  670DIO    C1437484   1.929   7.194   8.960
  670DIO    C1537485   1.863   7.132   8.844
  670DIO     F537486   1.925   7.128   8.724
  670DIO    C1637487   1.732   7.069   8.852
  670DIO    C1737488   1.656   7.073   8.977
  670DIO    C1837489   1.725   7.119   9.097
  670DIO    C1937490   1.857   7.180   9.088
  670DIO     F637491   1.919   7.207   9.205
  670DIO    C2037492   1.516   7.019   8.984
  670DIO     O337493   1.446   7.021   8.859
  670DIO    C2137494   1.402   7.152   8.823
  670DIO    C2237495   1.313   7.211   8.932
  670DIO    C2337496   1.394   7.208   9.062
  670DIO     O437497   1.438   7.076   9.090
  670DIO    C2437498   1.180   7.135   8.951
  670DIO    C2537499   1.090   7.127   8.827
  670DIO    C2637500   1.051   7.263   8.771
  670DIO     H137501   2.772   7.133   9.041
  670DIO     H237502   2.731   7.406   8.695
  670DIO     H337503   2.554   7.188   8.656
  670DIO     H437504   2.302   7.160   8.667
  670DIO     H537505   2.303   7.274   9.089
  670DIO     H637506   1.694   7.017   8.765
  670DIO     H737507   1.682   7.104   9.195
  670DIO     H837508   1.525   6.912   9.010
  670DIO     H937509   1.489   7.216   8.805
  670DIO    H1037510   1.349   7.144   8.728
  670DIO    H1137511   1.291   7.316   8.907
  670DIO    H1237512   1.333   7.242   9.146
  670DIO    H1337513   1.480   7.276   9.056
  670DIO    H1437514   1.200   7.032   8.984
  670DIO    H1537515   1.124   7.183   9.031
  670DIO    H1637516   1.137   7.067   8.749
  670DIO    H1737517   0.998   7.074   8.855
  670DIO    H1837518   1.007   7.327   8.848
  670DIO    H1937519   1.138   7.314   8.728
  670DIO    H2037520   0.978   7.250   8.691
  671DIO     F137521   5.233   0.727   0.466
  671DIO     C137522   5.155   0.779   0.369
  671DIO     C237523   5.011   0.764   0.378
  671DIO     C337524   4.922   0.818   0.273
  671DIO     C437525   4.988   0.889   0.160
  671DIO     C537526   5.132   0.902   0.154
  671DIO     F237527   5.188   0.971   0.052
  671DIO     C637528   5.216   0.848   0.258
  671DIO     F337529   5.350   0.860   0.250
  671DIO     C737530   4.776   0.803   0.279
  671DIO     C837531   4.699   0.751   0.164
  671DIO     C937532   4.554   0.737   0.170
  671DIO    C1037533   4.482   0.784   0.287
  671DIO    C1137534   4.554   0.829   0.405
  671DIO    C1237535   4.698   0.840   0.399
  671DIO     F437536   4.763   0.887   0.508
  671DIO     O137537   4.349   0.746   0.296
  671DIO    C1337538   4.255   0.830   0.354
  671DIO     O237539   4.254   0.953   0.380
  671DIO    C1437540   4.126   0.764   0.375
  671DIO    C1537541   4.060   0.686   0.268
  671DIO     F537542   4.122   0.667   0.150
  671DIO    C1637543   3.929   0.626   0.285
  671DIO    C1737544   3.853   0.645   0.408
  671DIO    C1837545   3.922   0.706   0.521
  671DIO    C1937546   4.053   0.766   0.504
  671DIO     F637547   4.116   0.807   0.617
  671DIO    C2037548   3.712   0.592   0.422
  671DIO     O337549   3.643   0.579   0.298
  671DIO    C2137550   3.599   0.703   0.245
  671DIO    C2237551   3.510   0.777   0.345
  671DIO    C2337552   3.591   0.790   0.474
  671DIO     O437553   3.635   0.663   0.520
  671DIO    C2437554   3.377   0.703   0.374
  671DIO    C2537555   3.287   0.680   0.252
  671DIO    C2637556   3.248   0.807   0.179
  671DIO     H137557   4.969   0.713   0.464
  671DIO     H237558   4.927   0.939   0.085
  671DIO     H337559   4.750   0.718   0.075
  671DIO     H437560   4.499   0.691   0.090
  671DIO     H537561   4.500   0.859   0.493
  671DIO     H637562   3.891   0.563   0.205
  671DIO     H737563   3.879   0.704   0.620
  671DIO     H837564   3.722   0.490   0.461
  671DIO     H937565   3.686   0.765   0.219
  671DIO    H1037566   3.546   0.684   0.152
  671DIO    H1137567   3.487   0.877   0.307
  671DIO    H1237568   3.530   0.835   0.554
  671DIO    H1337569   3.677   0.857   0.460
  671DIO    H1437570   3.397   0.606   0.420
  671DIO    H1537571   3.321   0.761   0.448
  671DIO    H1637572   3.334   0.610   0.183
  671DIO    H1737573   3.195   0.630   0.287
  671DIO    H1837574   3.204   0.880   0.247
  671DIO    H1937575   3.335   0.852   0.130
  671DIO    H2037576   3.174   0.784   0.101
  672DIO     F137577   6.570   5.081   9.566
  672DIO     C137578   6.492   5.086   9.456
  672DIO     C237579   6.348   5.077   9.470
  672DIO     C337580   6.259   5.080   9.352
  672DIO     C437581   6.325   5.095   9.220
  672DIO     C537582   6.469   5.104   9.208
  672DIO     F237583   6.524   5.122   9.087
  672DIO     C637584   6.553   5.100   9.326
  672DIO     F337585   6.686   5.108   9.314
  672DIO     C737586   6.113   5.069   9.364
  672DIO     C837587   6.036   4.973   9.283
  672DIO     C937588   5.891   4.963   9.294
  672DIO    C1037589   5.818   5.055   9.379
  672DIO    C1137590   5.891   5.146   9.466
  672DIO    C1237591   6.035   5.154   9.456
  672DIO     F437592   6.100   5.243   9.534
  672DIO     O137593   5.686   5.025   9.404
  672DIO    C1337594   5.592   5.126   9.420
  672DIO     O237595   5.591   5.248   9.390
  672DIO    C1437596   5.462   5.075   9.468
  672DIO    C1537597   5.396   4.959   9.404
  672DIO     F537598   5.459   4.890   9.306
  672DIO    C1637599   5.265   4.911   9.445
  672DIO    C1737600   5.190   4.982   9.548
  672DIO    C1837601   5.258   5.086   9.624
  672DIO    C1937602   5.390   5.132   9.583
  672DIO     F637603   5.452   5.218   9.667
  672DIO    C2037604   5.049   4.940   9.584
  672DIO     O337605   4.979   4.875   9.478
  672DIO    C2137606   4.935   4.964   9.376
  672DIO    C2237607   4.847   5.074   9.435
  672DIO    C2337608   4.927   5.142   9.546
  672DIO     O437609   4.972   5.046   9.642
  672DIO    C2437610   4.714   5.019   9.492
  672DIO    C2537611   4.623   4.946   9.393
  672DIO    C2637612   4.585   5.029   9.272
  672DIO     H137613   6.305   5.067   9.569
  672DIO     H237614   6.264   5.108   9.131
  672DIO     H337615   6.087   4.904   9.217
  672DIO     H437616   5.836   4.886   9.241
  672DIO     H537617   5.836   5.211   9.533
  672DIO     H637618   5.227   4.820   9.401
  672DIO     H737619   5.215   5.126   9.715
  672DIO     H837620   5.059   4.865   9.663
  672DIO     H937621   5.022   5.008   9.326
  672DIO    H1037622   4.883   4.906   9.300
  672DIO    H1137623   4.824   5.148   9.358
  672DIO    H1237624   4.866   5.216   9.598
  672DIO    H1337625   5.013   5.195   9.504
  672DIO    H1437626   4.734   4.952   9.576
  672DIO    H1537627   4.657   5.104   9.534
  672DIO    H1637628   4.670   4.853   9.360
  672DIO    H1737629   4.531   4.917   9.446
  672DIO    H1837630   4.541   5.125   9.302
  672DIO    H1937631   4.671   5.049   9.208
  672DIO    H2037632   4.511   4.975   9.211
  673DIO     F137633   9.955   8.676   4.069
  673DIO     C137634   9.877   8.624   3.972
  673DIO     C237635   9.733   8.624   3.989
  673DIO     C337636   9.644   8.566   3.885
  673DIO     C437637   9.710   8.512   3.764
  673DIO     C537638   9.854   8.514   3.749
  673DIO     F237639   9.910   8.468   3.636
  673DIO     C637640   9.938   8.570   3.853
  673DIO     F337641  10.072   8.571   3.838
  673DIO     C737642   9.498   8.563   3.901
  673DIO     C837643   9.421   8.439   3.881
  673DIO     C937644   9.276   8.436   3.896
  673DIO    C1037645   9.204   8.559   3.922
  673DIO    C1137646   9.276   8.682   3.950
  673DIO    C1237647   9.420   8.683   3.937
  673DIO     F437648   9.485   8.800   3.959
  673DIO     O137649   9.071   8.545   3.958
  673DIO    C1337650   8.977   8.640   3.921
  673DIO     O237651   8.976   8.730   3.832
  673DIO    C1437652   8.848   8.621   3.988
  673DIO    C1537653   8.781   8.489   3.992
  673DIO     F537654   8.844   8.380   3.943
  673DIO    C1637655   8.651   8.469   4.052
  673DIO    C1737656   8.575   8.582   4.104
  673DIO    C1837657   8.644   8.710   4.116
  673DIO    C1937658   8.775   8.729   4.058
  673DIO     F637659   8.838   8.846   4.086
  673DIO    C2037660   8.434   8.564   4.156
  673DIO     O337661   8.364   8.454   4.098
  673DIO    C2137662   8.321   8.479   3.965
  673DIO    C2237663   8.232   8.603   3.960
  673DIO    C2337664   8.313   8.718   4.021
  673DIO     O437665   8.357   8.685   4.152
  673DIO    C2437666   8.099   8.586   4.037
  673DIO    C2537667   8.008   8.472   3.989
  673DIO    C2637668   7.970   8.482   3.842
  673DIO     H137669   9.691   8.666   4.079
  673DIO     H237670   9.649   8.478   3.681
  673DIO     H337671   9.472   8.346   3.859
  673DIO     H437672   9.221   8.343   3.889
  673DIO     H537673   9.222   8.772   3.974
  673DIO     H637674   8.613   8.367   4.060
  673DIO     H737675   8.601   8.791   4.174
  673DIO     H837676   8.444   8.540   4.263
  673DIO     H937677   8.407   8.491   3.900
  673DIO    H1037678   8.268   8.391   3.930
  673DIO    H1137679   8.209   8.627   3.856
  673DIO    H1237680   8.252   8.808   4.028
  673DIO    H1337681   8.399   8.743   3.957
  673DIO    H1437682   8.119   8.570   4.144
  673DIO    H1537683   8.043   8.680   4.030
  673DIO    H1637684   8.056   8.375   4.008
  673DIO    H1737685   7.917   8.473   4.049
  673DIO    H1837686   7.926   8.579   3.819
  673DIO    H1937687   8.057   8.466   3.777
  673DIO    H2037688   7.896   8.404   3.818
  674DIO     F137689   8.471   4.814   5.670
  674DIO     C137690   8.393   4.923   5.656
  674DIO     C237691   8.249   4.908   5.649
  674DIO     C337692   8.160   5.025   5.631
  674DIO     C437693   8.226   5.157   5.623
  674DIO     C537694   8.370   5.170   5.630
  674DIO     F237695   8.426   5.293   5.626
  674DIO     C637696   8.454   5.054   5.647
  674DIO     F337697   8.588   5.067   5.652
  674DIO     C737698   8.014   5.011   5.623
  674DIO     C837699   7.937   5.074   5.513
  674DIO     C937700   7.792   5.060   5.506
  674DIO    C1037701   7.720   4.993   5.612
  674DIO    C1137702   7.792   4.924   5.717
  674DIO    C1237703   7.936   4.935   5.723
  674DIO     F437704   8.001   4.874   5.825
  674DIO     O137705   7.587   4.964   5.586
  674DIO    C1337706   7.493   4.965   5.688
  674DIO     O237707   7.492   5.017   5.803
  674DIO    C1437708   7.364   4.910   5.647
  674DIO    C1537709   7.297   4.951   5.521
  674DIO     F537710   7.360   5.036   5.437
  674DIO    C1637711   7.167   4.903   5.482
  674DIO    C1737712   7.091   4.814   5.570
  674DIO    C1837713   7.160   4.758   5.685
  674DIO    C1937714   7.291   4.806   5.724
  674DIO     F637715   7.354   4.739   5.823
  674DIO    C2037716   6.950   4.771   5.535
  674DIO     O337717   6.880   4.864   5.451
  674DIO    C2137718   6.837   4.980   5.522
  674DIO    C2237719   6.748   4.942   5.640
  674DIO    C2337720   6.829   4.845   5.726
  674DIO     O437721   6.873   4.733   5.650
  674DIO    C2437722   6.615   4.875   5.597
  674DIO    C2537723   6.524   4.960   5.507
  674DIO    C2637724   6.486   5.094   5.567
  674DIO     H137725   8.207   4.808   5.657
  674DIO     H237726   8.165   5.247   5.620
  674DIO     H337727   7.988   5.126   5.434
  674DIO     H437728   7.737   5.099   5.421
  674DIO     H537729   7.738   4.869   5.793
  674DIO     H637730   7.129   4.930   5.384
  674DIO     H737731   7.117   4.676   5.741
  674DIO     H837732   6.960   4.680   5.475
  674DIO     H937733   6.923   5.037   5.556
  674DIO    H1037734   6.784   5.044   5.451
  674DIO    H1137735   6.725   5.031   5.699
  674DIO    H1237736   6.768   4.806   5.809
  674DIO    H1337737   6.915   4.895   5.772
  674DIO    H1437738   6.635   4.781   5.545
  674DIO    H1537739   6.559   4.849   5.687
  674DIO    H1637740   6.572   4.976   5.409
  674DIO    H1737741   6.433   4.903   5.487
  674DIO    H1837742   6.442   5.082   5.666
  674DIO    H1937743   6.573   5.161   5.575
  674DIO    H2037744   6.412   5.144   5.503
  675DIO     F137745   8.778   5.830   1.189
  675DIO     C137746   8.700   5.819   1.298
  675DIO     C237747   8.556   5.829   1.285
  675DIO     C337748   8.467   5.821   1.403
  675DIO     C437749   8.533   5.799   1.534
  675DIO     C537750   8.677   5.789   1.545
  675DIO     F237751   8.732   5.765   1.665
  675DIO     C637752   8.761   5.799   1.428
  675DIO     F337753   8.894   5.791   1.439
  675DIO     C737754   8.321   5.832   1.391
  675DIO     C837755   8.244   5.924   1.477
  675DIO     C937756   8.099   5.935   1.466
  675DIO    C1037757   8.026   5.846   1.377
  675DIO    C1137758   8.099   5.760   1.285
  675DIO    C1237759   8.243   5.751   1.295
  675DIO     F437760   8.308   5.666   1.213
  675DIO     O137761   7.894   5.878   1.354
  675DIO    C1337762   7.800   5.778   1.332
  675DIO     O237763   7.799   5.655   1.357
  675DIO    C1437764   7.671   5.831   1.287
  675DIO    C1537765   7.604   5.944   1.356
  675DIO     F537766   7.667   6.007   1.457
  675DIO    C1637767   7.473   5.994   1.317
  675DIO    C1737768   7.398   5.928   1.211
  675DIO    C1837769   7.466   5.828   1.131
  675DIO    C1937770   7.598   5.779   1.169
  675DIO     F637771   7.661   5.697   1.082
  675DIO    C2037772   7.257   5.971   1.178
  675DIO     O337773   7.187   6.032   1.287
  675DIO    C2137774   7.144   5.937   1.384
  675DIO    C2237775   7.055   5.831   1.320
  675DIO    C2337776   7.135   5.768   1.206
  675DIO     O437777   7.180   5.868   1.115
  675DIO    C2437778   6.922   5.888   1.265
  675DIO    C2537779   6.831   5.956   1.368
  675DIO    C2637780   6.793   5.867   1.485
  675DIO     H137781   8.513   5.844   1.186
  675DIO     H237782   8.472   5.782   1.622
  675DIO     H337783   8.295   5.990   1.546
  675DIO     H437784   8.044   6.008   1.523
  675DIO     H537785   8.044   5.698   1.215
  675DIO     H637786   7.435   6.082   1.366
  675DIO     H737787   7.424   5.792   1.038
  675DIO     H837788   7.267   6.050   1.102
  675DIO     H937789   7.230   5.891   1.432
  675DIO    H1037790   7.091   5.991   1.462
  675DIO    H1137791   7.032   5.753   1.394
  675DIO    H1237792   7.074   5.697   1.150
  675DIO    H1337793   7.222   5.713   1.245
  675DIO    H1437794   6.942   5.959   1.185
  675DIO    H1537795   6.865   5.805   1.219
  675DIO    H1637796   6.879   6.048   1.405
  675DIO    H1737797   6.739   5.988   1.317
  675DIO    H1837798   6.749   5.773   1.451
  675DIO    H1937799   6.879   5.844   1.548
  675DIO    H2037800   6.719   5.918   1.548
  676DIO     F137801   6.372   0.439   6.700
  676DIO     C137802   6.294   0.502   6.790
  676DIO     C237803   6.150   0.501   6.773
  676DIO     C337804   6.061   0.571   6.869
  676DIO     C437805   6.127   0.640   6.982
  676DIO     C537806   6.271   0.640   6.997
  676DIO     F237807   6.326   0.700   7.104
  676DIO     C637808   6.355   0.571   6.902
  676DIO     F337809   6.488   0.572   6.916
  676DIO     C737810   5.915   0.572   6.853
  676DIO     C837811   5.838   0.698   6.857
  676DIO     C937812   5.693   0.699   6.842
  676DIO    C1037813   5.620   0.573   6.832
  676DIO    C1137814   5.693   0.448   6.820
  676DIO    C1237815   5.837   0.448   6.832
  676DIO     F437816   5.902   0.330   6.826
  676DIO     O137817   5.488   0.582   6.794
  676DIO    C1337818   5.394   0.493   6.843
  676DIO     O237819   5.393   0.415   6.942
  676DIO    C1437820   5.265   0.504   6.774
  676DIO    C1537821   5.198   0.634   6.753
  676DIO     F537822   5.261   0.748   6.788
  676DIO    C1637823   5.067   0.646   6.691
  676DIO    C1737824   4.992   0.527   6.654
  676DIO    C1837825   5.060   0.399   6.658
  676DIO    C1937826   5.192   0.387   6.718
  676DIO     F637827   5.255   0.268   6.706
  676DIO    C2037828   4.851   0.538   6.600
  676DIO     O337829   4.781   0.655   6.643
  676DIO    C2137830   4.738   0.647   6.778
  676DIO    C2237831   4.649   0.525   6.799
  676DIO    C2337832   4.729   0.403   6.754
  676DIO     O437833   4.774   0.419   6.620
  676DIO    C2437834   4.516   0.532   6.721
  676DIO    C2537835   4.425   0.651   6.754
  676DIO    C2637836   4.387   0.660   6.901
  676DIO     H137837   6.107   0.447   6.689
  676DIO     H237838   6.066   0.685   7.060
  676DIO     H337839   5.889   0.793   6.867
  676DIO     H437840   5.638   0.792   6.837
  676DIO     H537841   5.638   0.356   6.807
  676DIO     H637842   5.029   0.746   6.670
  676DIO     H737843   5.018   0.311   6.611
  676DIO     H837844   4.861   0.549   6.491
  676DIO     H937845   4.824   0.643   6.845
  676DIO    H1037846   4.685   0.739   6.803
  676DIO    H1137847   4.626   0.514   6.906
  676DIO    H1237848   4.668   0.312   6.758
  676DIO    H1337849   4.816   0.386   6.820
  676DIO    H1437850   4.536   0.534   6.613
  676DIO    H1537851   4.459   0.440   6.740
  676DIO    H1637852   4.473   0.745   6.722
  676DIO    H1737853   4.333   0.642   6.694
  676DIO    H1837854   4.343   0.566   6.936
  676DIO    H1937855   4.473   0.684   6.963
  676DIO    H2037856   4.313   0.740   6.915
  677DIO     F137857   9.707   1.595   6.123
  677DIO     C137858   9.629   1.606   6.233
  677DIO     C237859   9.485   1.613   6.217
  677DIO     C337860   9.396   1.628   6.335
  677DIO     C437861   9.462   1.632   6.468
  677DIO     C537862   9.606   1.625   6.480
  677DIO     F237863   9.662   1.625   6.603
  677DIO     C637864   9.690   1.611   6.363
  677DIO     F337865   9.824   1.606   6.377
  677DIO     C737866   9.250   1.636   6.321
  677DIO     C837867   9.173   1.744   6.387
  677DIO     C937868   9.028   1.752   6.374
  677DIO    C1037869   8.956   1.648   6.304
  677DIO    C1137870   9.028   1.545   6.232
  677DIO    C1237871   9.172   1.538   6.243
  677DIO     F437872   9.237   1.438   6.179
  677DIO     O137873   8.823   1.674   6.275
  677DIO    C1337874   8.729   1.572   6.274
  677DIO     O237875   8.728   1.456   6.322
  677DIO    C1437876   8.600   1.615   6.219
  677DIO    C1537877   8.534   1.739   6.265
  677DIO     F537878   8.596   1.822   6.351
  677DIO    C1637879   8.403   1.780   6.217
  677DIO    C1737880   8.327   1.695   6.126
  677DIO    C1837881   8.396   1.581   6.067
  677DIO    C1937882   8.527   1.541   6.114
  677DIO     F637883   8.590   1.443   6.044
  677DIO    C2037884   8.186   1.730   6.084
  677DIO     O337885   8.117   1.812   6.179
  677DIO    C2137886   8.073   1.738   6.293
  677DIO    C2237887   7.984   1.621   6.251
  677DIO    C2337888   8.065   1.537   6.152
  677DIO     O437889   8.109   1.617   6.043
  677DIO    C2437890   7.851   1.666   6.187
  677DIO    C2537891   7.761   1.754   6.274
  677DIO    C2637892   7.722   1.690   6.406
  677DIO     H137893   9.443   1.607   6.118
  677DIO     H237894   9.401   1.633   6.558
  677DIO     H337895   9.224   1.822   6.442
  677DIO     H437896   8.973   1.835   6.415
  677DIO     H537897   8.974   1.470   6.175
  677DIO     H637898   8.365   1.877   6.247
  677DIO     H737899   8.353   1.527   5.983
  677DIO     H837900   8.196   1.793   5.995
  677DIO     H937901   8.160   1.702   6.349
  677DIO    H1037902   8.020   1.807   6.359
  677DIO    H1137903   7.961   1.559   6.339
  677DIO    H1237904   8.004   1.456   6.112
  677DIO    H1337905   8.151   1.491   6.202
  677DIO    H1437906   7.871   1.720   6.093
  677DIO    H1537907   7.795   1.576   6.158
  677DIO    H1637908   7.808   1.851   6.292
  677DIO    H1737909   7.669   1.775   6.217
  677DIO    H1837910   7.678   1.591   6.391
  677DIO    H1937911   7.809   1.680   6.472
  677DIO    H2037912   7.648   1.752   6.458
  678DIO     F137913   2.961   2.586   0.451
  678DIO     C137914   2.884   2.644   0.357
  678DIO     C237915   2.740   2.629   0.365
  678DIO     C337916   2.651   2.690   0.264
  678DIO     C437917   2.716   2.768   0.156
  678DIO     C537918   2.861   2.782   0.151
  678DIO     F237919   2.916   2.857   0.054
  678DIO     C637920   2.944   2.721   0.251
  678DIO     F337921   3.078   2.733   0.244
  678DIO     C737922   2.504   2.675   0.269
  678DIO     C837923   2.427   2.631   0.151
  678DIO     C937924   2.283   2.616   0.156
  678DIO    C1037925   2.210   2.655   0.275
  678DIO    C1137926   2.283   2.692   0.396
  678DIO    C1237927   2.427   2.704   0.391
  678DIO     F437928   2.492   2.743   0.503
  678DIO     O137929   2.078   2.617   0.282
  678DIO    C1337930   1.983   2.696   0.346
  678DIO     O237931   1.982   2.818   0.379
  678DIO    C1437932   1.854   2.629   0.362
  678DIO    C1537933   1.788   2.559   0.250
  678DIO     F537934   1.851   2.548   0.131
  678DIO    C1637935   1.657   2.497   0.262
  678DIO    C1737936   1.581   2.508   0.386
  678DIO    C1837937   1.650   2.562   0.503
  678DIO    C1937938   1.782   2.622   0.491
  678DIO     F637939   1.844   2.656   0.606
  678DIO    C2037940   1.441   2.455   0.398
  678DIO     O337941   1.371   2.449   0.273
  678DIO    C2137942   1.327   2.578   0.228
  678DIO    C2237943   1.238   2.644   0.333
  678DIO    C2337944   1.319   2.649   0.463
  678DIO     O437945   1.363   2.518   0.500
  678DIO    C2437946   1.106   2.568   0.357
  678DIO    C2537947   1.015   2.553   0.234
  678DIO    C2637948   0.976   2.685   0.169
  678DIO     H137949   2.697   2.572   0.447
  678DIO     H237950   2.656   2.823   0.085
  678DIO     H337951   2.479   2.603   0.060
  678DIO     H437952   2.228   2.576   0.072
  678DIO     H537953   2.228   2.716   0.486
  678DIO     H637954   1.619   2.440   0.179
  678DIO     H737955   1.607   2.552   0.602
  678DIO     H837956   1.450   2.350   0.429
  678DIO     H937957   1.414   2.641   0.206
  678DIO    H1037958   1.274   2.564   0.134
  678DIO    H1137959   1.216   2.746   0.302
  678DIO    H1237960   1.258   2.688   0.545
  678DIO    H1337961   1.405   2.716   0.453
  678DIO    H1437962   1.125   2.468   0.396
  678DIO    H1537963   1.049   2.621   0.434
  678DIO    H1637964   1.062   2.488   0.160
  678DIO    H1737965   0.923   2.502   0.265
  678DIO    H1837966   0.933   2.754   0.242
  678DIO    H1937967   1.063   2.734   0.123
  678DIO    H2037968   0.903   2.668   0.090
  679DIO     F137969   9.322   9.794   9.701
  679DIO     C137970   9.245   9.797   9.591
  679DIO     C237971   9.101   9.788   9.605
  679DIO     C337972   9.012   9.787   9.487
  679DIO     C437973   9.077   9.799   9.354
  679DIO     C537974   9.222   9.808   9.343
  679DIO     F237975   9.277   9.822   9.221
  679DIO     C637976   9.305   9.807   9.460
  679DIO     F337977   9.439   9.814   9.448
  679DIO     C737978   8.866   9.777   9.499
  679DIO     C837979   8.788   9.678   9.421
  679DIO     C937980   8.644   9.669   9.433
  679DIO    C1037981   8.571   9.764   9.515
  679DIO    C1137982   8.644   9.857   9.599
  679DIO    C1237983   8.788   9.865   9.589
  679DIO     F437984   8.853   9.956   9.664
  679DIO     O137985   8.439   9.734   9.540
  679DIO    C1337986   8.344   9.835   9.554
  679DIO     O237987   8.344   9.956   9.520
  679DIO    C1437988   8.215   9.786   9.603
  679DIO    C1537989   8.149   9.668   9.543
  679DIO     F537990   8.212   9.597   9.447
  679DIO    C1637991   8.018   9.621   9.585
  679DIO    C1737992   7.942   9.695   9.686
  679DIO    C1837993   8.011   9.801   9.759
  679DIO    C1937994   8.143   9.847   9.717
  679DIO     F637995   8.205   9.935   9.798
  679DIO    C2037996   7.802   9.655   9.723
  679DIO     O337997   7.732   9.586   9.619
  679DIO    C2137998   7.688   9.673   9.515
  679DIO    C2237999   7.599   9.784   9.570
  679DIO    C2338000   7.680   9.855   9.679
  679DIO     O438001   7.724   9.762   9.778
  679DIO    C2438002   7.467   9.731   9.629
  679DIO    C2538003   7.376   9.655   9.532
  679DIO    C2638004   7.338   9.734   9.408
  679DIO     H138005   9.058   9.781   9.705
  679DIO     H238006   9.017   9.809   9.265
  679DIO     H338007   8.840   9.608   9.357
  679DIO     H438008   8.589   9.591   9.382
  679DIO     H538009   8.589   9.924   9.664
  679DIO     H638010   7.980   9.529   9.543
  679DIO     H738011   7.968   9.844   9.848
  679DIO     H838012   7.811   9.582   9.804
  679DIO     H938013   7.775   9.715   9.463
  679DIO    H1038014   7.636   9.613   9.441
  679DIO    H1138015   7.577   9.856   9.491
  679DIO    H1238016   7.619   9.930   9.729
  679DIO    H1338017   7.766   9.907   9.636
  679DIO    H1438018   7.487   9.666   9.715
  679DIO    H1538019   7.410   9.817   9.669
  679DIO    H1638020   7.423   9.561   9.502
  679DIO    H1738021   7.284   9.627   9.586
  679DIO    H1838022   7.294   9.831   9.435
  679DIO    H1938023   7.424   9.752   9.344
  679DIO    H2038024   7.264   9.679   9.350
  680DIO     F138025   2.830   7.092   4.930
  680DIO     C138026   2.752   7.012   4.854
  680DIO     C238027   2.608   7.017   4.871
  680DIO     C338028   2.519   6.930   4.791
  680DIO     C438029   2.585   6.840   4.692
  680DIO     C538030   2.729   6.837   4.678
  680DIO     F238031   2.784   6.758   4.585
  680DIO     C638032   2.813   6.923   4.758
  680DIO     F338033   2.946   6.919   4.745
  680DIO     C738034   2.373   6.932   4.807
  680DIO     C838035   2.296   6.807   4.826
  680DIO     C938036   2.151   6.809   4.841
  680DIO    C1038037   2.078   6.934   4.827
  680DIO    C1138038   2.151   7.060   4.815
  680DIO    C1238039   2.295   7.057   4.803
  680DIO     F438040   2.360   7.175   4.787
  680DIO     O138041   1.946   6.933   4.866
  680DIO    C1338042   1.852   7.011   4.801
  680DIO     O238043   1.851   7.069   4.689
  680DIO    C1438044   1.722   7.014   4.871
  680DIO    C1538045   1.656   6.890   4.916
  680DIO     F538046   1.719   6.771   4.904
  680DIO    C1638047   1.525   6.890   4.979
  680DIO    C1738048   1.450   7.014   4.993
  680DIO    C1838049   1.518   7.139   4.964
  680DIO    C1938050   1.650   7.139   4.903
  680DIO     F638051   1.712   7.258   4.892
  680DIO    C2038052   1.309   7.014   5.048
  680DIO     O338053   1.239   6.890   5.028
  680DIO    C2138054   1.195   6.873   4.894
  680DIO    C2238055   1.107   6.989   4.850
  680DIO    C2338056   1.187   7.117   4.871
  680DIO     O438057   1.232   7.127   5.006
  680DIO    C2438058   0.974   6.996   4.928
  680DIO    C2538059   0.883   6.873   4.919
  680DIO    C2638060   0.845   6.836   4.776
  680DIO     H138061   2.565   7.086   4.943
  680DIO     H238062   2.524   6.781   4.624
  680DIO     H338063   2.347   6.713   4.835
  680DIO     H438064   2.096   6.719   4.864
  680DIO     H538065   2.096   7.153   4.810
  680DIO     H638066   1.487   6.796   5.019
  680DIO     H738067   1.475   7.234   4.993
  680DIO     H838068   1.319   7.024   5.157
  680DIO     H938069   1.282   6.863   4.828
  680DIO    H1038070   1.143   6.777   4.888
  680DIO    H1138071   1.084   6.979   4.743
  680DIO    H1238072   1.126   7.205   4.849
  680DIO    H1338073   1.273   7.120   4.803
  680DIO    H1438074   0.994   7.015   5.035
  680DIO    H1538075   0.917   7.083   4.892
  680DIO    H1638076   0.930   6.787   4.968
  680DIO    H1738077   0.791   6.894   4.975
  680DIO    H1838078   0.801   6.921   4.724
  680DIO    H1938079   0.931   6.801   4.719
  680DIO    H2038080   0.771   6.755   4.778
  681DIO     F138081   7.207   4.814   4.661
  681DIO     C138082   7.129   4.834   4.769
  681DIO     C238083   6.985   4.840   4.754
  681DIO     C338084   6.897   4.864   4.869
  681DIO     C438085   6.962   4.880   5.001
  681DIO     C538086   7.106   4.873   5.015
  681DIO     F238087   7.162   4.884   5.137
  681DIO     C638088   7.190   4.850   4.899
  681DIO     F338089   7.324   4.846   4.913
  681DIO     C738090   6.750   4.871   4.855
  681DIO     C838091   6.673   4.984   4.912
  681DIO     C938092   6.528   4.991   4.898
  681DIO    C1038093   6.456   4.881   4.837
  681DIO    C1138094   6.528   4.773   4.774
  681DIO    C1238095   6.672   4.767   4.785
  681DIO     F438096   6.737   4.663   4.730
  681DIO     O138097   6.324   4.905   4.806
  681DIO    C1338098   6.229   4.803   4.813
  681DIO     O238099   6.228   4.692   4.871
  681DIO    C1438100   6.100   4.842   4.755
  681DIO    C1538101   6.034   4.970   4.790
  681DIO     F538102   6.096   5.059   4.870
  681DIO    C1638103   5.903   5.006   4.739
  681DIO    C1738104   5.827   4.914   4.656
  681DIO    C1838105   5.896   4.795   4.606
  681DIO    C1938106   6.027   4.759   4.656
  681DIO     F638107   6.090   4.656   4.595
  681DIO    C2038108   5.686   4.946   4.611
  681DIO     O338109   5.617   5.034   4.699
  681DIO    C2138110   5.573   4.970   4.819
  681DIO    C2238111   5.484   4.851   4.787
  681DIO    C2338112   5.565   4.759   4.695
  681DIO     O438113   5.609   4.829   4.580
  681DIO    C2438114   5.351   4.890   4.719
  681DIO    C2538115   5.261   4.985   4.798
  681DIO    C2638116   5.222   4.932   4.936
  681DIO     H138117   6.943   4.826   4.655
  681DIO     H238118   6.901   4.888   5.091
  681DIO     H338119   6.725   5.066   4.960
  681DIO     H438120   6.473   5.078   4.932
  681DIO     H538121   6.474   4.694   4.723
  681DIO     H638122   5.865   5.105   4.762
  681DIO     H738123   5.853   4.735   4.527
  681DIO     H838124   5.696   5.001   4.517
  681DIO     H938125   5.660   4.939   4.878
  681DIO    H1038126   5.520   5.045   4.879
  681DIO    H1138127   5.462   4.796   4.880
  681DIO    H1238128   5.504   4.675   4.661
  681DIO    H1338129   5.651   4.716   4.748
  681DIO    H1438130   5.371   4.937   4.621
  681DIO    H1538131   5.295   4.798   4.698
  681DIO    H1638132   5.308   5.083   4.809
  681DIO    H1738133   5.169   5.001   4.740
  681DIO    H1838134   5.178   4.832   4.929
  681DIO    H1938135   5.309   4.927   5.002
  681DIO    H2038136   5.149   4.998   4.982
  682DIO     F138137   9.955   0.204   9.432
  682DIO     C138138   9.877   0.157   9.531
  682DIO     C238139   9.733   0.171   9.522
  682DIO     C338140   9.644   0.123   9.630
  682DIO     C438141   9.710   0.058   9.746
  682DIO     C538142   9.854   0.045   9.753
  682DIO     F238143   9.910  -0.018   9.858
  682DIO     C638144   9.938   0.094   9.646
  682DIO     F338145  10.072   0.082   9.654
  682DIO     C738146   9.498   0.137   9.623
  682DIO     C838147   9.421   0.195   9.735
  682DIO     C938148   9.276   0.209   9.728
  682DIO    C1038149   9.204   0.156   9.614
  682DIO    C1138150   9.276   0.105   9.499
  682DIO    C1238151   9.420   0.094   9.505
  682DIO     F438152   9.485   0.041   9.399
  682DIO     O138153   9.071   0.193   9.603
  682DIO    C1338154   8.977   0.106   9.549
  682DIO     O238155   8.976  -0.018   9.531
  682DIO    C1438156   8.848   0.172   9.525
  682DIO    C1538157   8.781   0.255   9.628
  682DIO     F538158   8.844   0.280   9.744
  682DIO    C1638159   8.651   0.314   9.608
  682DIO    C1738160   8.575   0.288   9.486
  682DIO    C1838161   8.644   0.221   9.376
  682DIO    C1938162   8.775   0.163   9.396
  682DIO     F638163   8.838   0.115   9.286
  682DIO    C2038164   8.434   0.340   9.469
  682DIO     O338165   8.364   0.360   9.592
  682DIO    C2138166   8.321   0.239   9.651
  682DIO    C2238167   8.232   0.160   9.555
  682DIO    C2338168   8.313   0.140   9.427
  682DIO     O438169   8.357   0.264   9.375
  682DIO    C2438170   8.099   0.232   9.523
  682DIO    C2538171   8.008   0.262   9.643
  682DIO    C2638172   7.970   0.139   9.723
  682DIO     H138173   9.691   0.217   9.434
  682DIO     H238174   9.649   0.012   9.823
  682DIO     H338175   9.472   0.233   9.822
  682DIO     H438176   9.221   0.259   9.806
  682DIO     H538177   9.222   0.070   9.412
  682DIO     H638178   8.613   0.381   9.684
  682DIO     H738179   8.601   0.218   9.277
  682DIO     H838180   8.444   0.440   9.424
  682DIO     H938181   8.407   0.179   9.681
  682DIO    H1038182   8.268   0.263   9.744
  682DIO    H1138183   8.209   0.062   9.599
  682DIO    H1238184   8.252   0.091   9.350
  682DIO    H1338185   8.399   0.074   9.445
  682DIO    H1438186   8.119   0.327   9.471
  682DIO    H1538187   8.043   0.170   9.452
  682DIO    H1638188   8.056   0.336   9.709
  682DIO    H1738189   7.917   0.309   9.605
  682DIO    H1838190   7.926   0.062   9.659
  682DIO    H1938191   8.057   0.096   9.775
  682DIO    H2038192   7.896   0.166   9.800
  683DIO     F138193   2.981   7.296   9.830
  683DIO     C138194   2.904   7.395   9.877
  683DIO     C238195   2.759   7.386   9.863
  683DIO     C338196   2.671   7.494   9.911
  683DIO     C438197   2.736   7.610   9.976
  683DIO     C538198   2.880   7.617   9.988
  683DIO     F238199   2.936   7.722  10.052
  683DIO     C638200   2.964   7.510   9.940
  683DIO     F338201   3.098   7.518   9.951
  683DIO     C738202   2.524   7.487   9.897
  683DIO     C838203   2.447   7.599   9.838
  683DIO     C938204   2.302   7.592   9.825
  683DIO    C1038205   2.230   7.478   9.878
  683DIO    C1138206   2.302   7.363   9.929
  683DIO    C1238207   2.446   7.369   9.940
  683DIO     F438208   2.511   7.263   9.992
  683DIO     O138209   2.098   7.467   9.840
  683DIO    C1338210   2.003   7.413   9.927
  683DIO     O238211   2.002   7.394  10.052
  683DIO    C1438212   1.874   7.389   9.862
  683DIO    C1538213   1.808   7.492   9.779
  683DIO     F538214   1.870   7.608   9.753
  683DIO    C1638215   1.677   7.472   9.719
  683DIO    C1738216   1.601   7.350   9.745
  683DIO    C1838217   1.670   7.240   9.813
  683DIO    C1938218   1.802   7.260   9.871
  683DIO     F638219   1.864   7.150   9.919
  683DIO    C2038220   1.460   7.333   9.693
  683DIO     O338221   1.391   7.456   9.673
  683DIO    C2138222   1.347   7.515   9.795
  683DIO    C2238223   1.258   7.419   9.873
  683DIO    C2338224   1.339   7.291   9.894
  683DIO     O438225   1.383   7.239   9.769
  683DIO    C2438226   1.125   7.387   9.801
  683DIO    C2538227   1.035   7.507   9.771
  683DIO    C2638228   0.996   7.587   9.895
  683DIO     H138229   2.717   7.298   9.816
  683DIO     H238230   2.676   7.687  10.022
  683DIO     H338231   2.499   7.686   9.800
  683DIO     H438232   2.247   7.670   9.775
  683DIO     H538233   2.248   7.276   9.963
  683DIO     H638234   1.639   7.548   9.652
  683DIO     H738235   1.627   7.141   9.815
  683DIO     H838236   1.470   7.288   9.594
  683DIO     H938237   1.434   7.545   9.855
  683DIO    H1038238   1.294   7.608   9.770
  683DIO    H1138239   1.236   7.462   9.972
  683DIO    H1238240   1.278   7.214   9.942
  683DIO    H1338241   1.425   7.309   9.959
  683DIO    H1438242   1.145   7.335   9.707
  683DIO    H1538243   1.069   7.316   9.863
  683DIO    H1638244   1.082   7.573   9.698
  683DIO    H1738245   0.943   7.469   9.724
  683DIO    H1838246   0.952   7.523   9.972
  683DIO    H1938247   1.083   7.639   9.938
  683DIO    H2038248   0.923   7.664   9.868
  684DIO     F138249   3.923   1.562   4.876
  684DIO     C138250   3.845   1.563   4.766
  684DIO     C238251   3.701   1.554   4.781
  684DIO     C338252   3.612   1.552   4.662
  684DIO     C438253   3.678   1.562   4.530
  684DIO     C538254   3.822   1.571   4.518
  684DIO     F238255   3.878   1.584   4.396
  684DIO     C638256   3.906   1.572   4.636
  684DIO     F338257   4.040   1.579   4.623
  684DIO     C738258   3.466   1.542   4.675
  684DIO     C838259   3.389   1.442   4.598
  684DIO     C938260   3.244   1.433   4.610
  684DIO    C1038261   3.172   1.529   4.691
  684DIO    C1138262   3.244   1.624   4.774
  684DIO    C1238263   3.388   1.631   4.764
  684DIO     F438264   3.453   1.723   4.838
  684DIO     O138265   3.039   1.500   4.717
  684DIO    C1338266   2.945   1.601   4.729
  684DIO     O238267   2.944   1.722   4.693
  684DIO    C1438268   2.816   1.552   4.779
  684DIO    C1538269   2.750   1.434   4.720
  684DIO     F538270   2.812   1.361   4.625
  684DIO    C1638271   2.619   1.388   4.763
  684DIO    C1738272   2.543   1.463   4.863
  684DIO    C1838273   2.612   1.570   4.934
  684DIO    C1938274   2.743   1.614   4.892
  684DIO     F638275   2.806   1.704   4.971
  684DIO    C2038276   2.402   1.423   4.900
  684DIO     O338277   2.333   1.353   4.797
  684DIO    C2138278   2.289   1.438   4.692
  684DIO    C2238279   2.200   1.550   4.746
  684DIO    C2338280   2.281   1.622   4.854
  684DIO     O438281   2.325   1.531   4.954
  684DIO    C2438282   2.067   1.498   4.805
  684DIO    C2538283   1.977   1.420   4.709
  684DIO    C2638284   1.938   1.498   4.585
  684DIO     H138285   3.659   1.549   4.880
  684DIO     H238286   3.617   1.571   4.440
  684DIO     H338287   3.440   1.371   4.535
  684DIO     H438288   3.189   1.355   4.560
  684DIO     H538289   3.190   1.691   4.838
  684DIO     H638290   2.581   1.295   4.722
  684DIO     H738291   2.569   1.614   5.023
  684DIO     H838292   2.412   1.351   4.982
  684DIO     H938293   2.376   1.480   4.640
  684DIO    H1038294   2.236   1.377   4.618
  684DIO    H1138295   2.177   1.621   4.665
  684DIO    H1238296   2.220   1.698   4.903
  684DIO    H1338297   2.367   1.674   4.810
  684DIO    H1438298   2.087   1.434   4.892
  684DIO    H1538299   2.011   1.584   4.844
  684DIO    H1638300   2.024   1.326   4.680
  684DIO    H1738301   1.885   1.393   4.763
  684DIO    H1838302   1.894   1.595   4.610
  684DIO    H1938303   2.025   1.516   4.520
  684DIO    H2038304   1.864   1.442   4.526
  685DIO     F138305   7.562   5.872   5.704
  685DIO     C138306   7.485   5.784   5.639
  685DIO     C238307   7.340   5.790   5.655
  685DIO     C338308   7.252   5.693   5.587
  685DIO     C438309   7.317   5.591   5.502
  685DIO     C538310   7.461   5.587   5.488
  685DIO     F238311   7.517   5.495   5.406
  685DIO     C638312   7.545   5.683   5.556
  685DIO     F338313   7.679   5.677   5.543
  685DIO     C738314   7.105   5.698   5.603
  685DIO     C838315   7.028   5.577   5.639
  685DIO     C938316   6.883   5.581   5.653
  685DIO    C1038317   6.811   5.703   5.623
  685DIO    C1138318   6.883   5.825   5.594
  685DIO    C1238319   7.027   5.822   5.582
  685DIO     F438320   7.092   5.935   5.551
  685DIO     O138321   6.679   5.706   5.662
  685DIO    C1338322   6.584   5.776   5.586
  685DIO     O238323   6.583   5.817   5.468
  685DIO    C1438324   6.455   5.787   5.655
  685DIO    C1538325   6.389   5.670   5.717
  685DIO     F538326   6.451   5.551   5.720
  685DIO    C1638327   6.258   5.679   5.780
  685DIO    C1738328   6.182   5.803   5.777
  685DIO    C1838329   6.251   5.924   5.732
  685DIO    C1938330   6.383   5.915   5.671
  685DIO     F638331   6.445   6.032   5.644
  685DIO    C2038332   6.041   5.811   5.831
  685DIO     O338333   5.972   5.686   5.828
  685DIO    C2138334   5.928   5.650   5.697
  685DIO    C2238335   5.839   5.759   5.638
  685DIO    C2338336   5.920   5.889   5.642
  685DIO     O438337   5.964   5.917   5.775
  685DIO    C2438338   5.706   5.778   5.715
  685DIO    C2538339   5.616   5.654   5.722
  685DIO    C2638340   5.577   5.598   5.586
  685DIO     H138341   7.298   5.868   5.717
  685DIO     H238342   7.257   5.524   5.442
  685DIO     H338343   7.080   5.484   5.660
  685DIO     H438344   6.828   5.494   5.688
  685DIO     H538345   6.829   5.917   5.577
  685DIO     H638346   6.220   5.591   5.831
  685DIO     H738347   6.208   6.022   5.748
  685DIO     H838348   6.051   5.835   5.938
  685DIO     H938349   6.015   5.632   5.633
  685DIO    H1038350   5.875   5.555   5.704
  685DIO    H1138351   5.817   5.735   5.534
  685DIO    H1238352   5.859   5.974   5.609
  685DIO    H1338353   6.006   5.884   5.574
  685DIO    H1438354   5.726   5.810   5.818
  685DIO    H1538355   5.650   5.859   5.667
  685DIO    H1638356   5.663   5.575   5.781
  685DIO    H1738357   5.524   5.682   5.775
  685DIO    H1838358   5.533   5.676   5.522
  685DIO    H1938359   5.664   5.556   5.534
  685DIO    H2038360   5.504   5.518   5.597
  686DIO     F138361   6.701   8.851   0.321
  686DIO     C138362   6.624   8.961   0.324
  686DIO     C238363   6.480   8.947   0.315
  686DIO     C338364   6.391   9.065   0.316
  686DIO     C438365   6.456   9.197   0.329
  686DIO     C538366   6.601   9.209   0.338
  686DIO     F238367   6.656   9.331   0.353
  686DIO     C638368   6.684   9.091   0.336
  686DIO     F338369   6.818   9.104   0.343
  686DIO     C738370   6.245   9.053   0.306
  686DIO     C838371   6.167   9.132   0.208
  686DIO     C938372   6.023   9.120   0.198
  686DIO    C1038373   5.950   9.037   0.292
  686DIO    C1138374   6.023   8.952   0.385
  686DIO    C1238375   6.167   8.962   0.393
  686DIO     F438376   6.232   8.886   0.483
  686DIO     O138377   5.818   9.012   0.262
  686DIO    C1338378   5.723   8.998   0.363
  686DIO     O238379   5.723   9.030   0.485
  686DIO    C1438380   5.594   8.949   0.313
  686DIO    C1538381   5.528   9.010   0.196
  686DIO     F538382   5.591   9.107   0.126
  686DIO    C1638383   5.397   8.968   0.149
  686DIO    C1738384   5.321   8.867   0.222
  686DIO    C1838385   5.390   8.793   0.327
  686DIO    C1938386   5.522   8.835   0.373
  686DIO     F638387   5.584   8.753   0.461
  686DIO    C2038388   5.181   8.830   0.181
  686DIO     O338389   5.111   8.935   0.113
  686DIO    C2138390   5.067   9.038   0.201
  686DIO    C2238391   4.978   8.982   0.312
  686DIO    C2338392   5.059   8.872   0.382
  686DIO     O438393   5.103   8.774   0.288
  686DIO    C2438394   4.846   8.923   0.258
  686DIO    C2538395   4.755   9.021   0.183
  686DIO    C2638396   4.717   9.144   0.264
  686DIO     H138397   6.437   8.847   0.308
  686DIO     H238398   6.396   9.287   0.340
  686DIO     H338399   6.219   9.197   0.138
  686DIO     H438400   5.968   9.172   0.120
  686DIO     H538401   5.968   8.886   0.451
  686DIO     H638402   5.359   9.011   0.057
  686DIO     H738403   5.347   8.703   0.370
  686DIO     H838404   5.190   8.750   0.107
  686DIO     H938405   5.154   9.089   0.244
  686DIO    H1038406   5.015   9.113   0.142
  686DIO    H1138407   4.956   9.061   0.384
  686DIO    H1238408   4.998   8.822   0.457
  686DIO    H1338409   5.145   8.915   0.434
  686DIO    H1438410   4.866   8.838   0.192
  686DIO    H1538411   4.789   8.883   0.344
  686DIO    H1638412   4.802   9.052   0.089
  686DIO    H1738413   4.663   8.968   0.155
  686DIO    H1838414   4.673   9.116   0.360
  686DIO    H1938415   4.803   9.208   0.282
  686DIO    H2038416   4.643   9.203   0.209
  687DIO     F138417   5.434   7.099   5.700
  687DIO     C138418   5.356   6.991   5.724
  687DIO     C238419   5.212   7.007   5.729
  687DIO     C338420   5.124   6.892   5.757
  687DIO     C438421   5.189   6.761   5.777
  687DIO     C538422   5.333   6.748   5.772
  687DIO     F238423   5.389   6.626   5.786
  687DIO     C638424   5.417   6.862   5.745
  687DIO     F338425   5.551   6.848   5.741
  687DIO     C738426   4.977   6.907   5.764
  687DIO     C838427   4.900   6.854   5.879
  687DIO     C938428   4.755   6.868   5.885
  687DIO    C1038429   4.683   6.925   5.774
  687DIO    C1138430   4.755   6.985   5.663
  687DIO    C1238431   4.899   6.974   5.658
  687DIO     F438432   4.964   7.025   5.552
  687DIO     O138433   4.551   6.957   5.797
  687DIO    C1338434   4.456   6.946   5.695
  687DIO     O238435   4.455   6.885   5.585
  687DIO    C1438436   4.327   7.006   5.732
  687DIO    C1538437   4.261   6.975   5.860
  687DIO     F538438   4.323   6.898   5.952
  687DIO    C1638439   4.130   7.027   5.896
  687DIO    C1738440   4.054   7.107   5.800
  687DIO    C1838441   4.123   7.153   5.680
  687DIO    C1938442   4.254   7.102   5.646
  687DIO     F638443   4.317   7.160   5.541
  687DIO    C2038444   3.913   7.153   5.831
  687DIO     O338445   3.844   7.068   5.922
  687DIO    C2138446   3.800   6.947   5.862
  687DIO    C2238447   3.711   6.974   5.741
  687DIO    C2338448   3.792   7.063   5.647
  687DIO     O438449   3.836   7.181   5.713
  687DIO    C2438450   3.578   7.044   5.779
  687DIO    C2538451   3.488   6.968   5.876
  687DIO    C2638452   3.449   6.829   5.827
  687DIO     H138453   5.170   7.106   5.712
  687DIO     H238454   5.128   6.672   5.788
  687DIO     H338455   4.952   6.809   5.962
  687DIO     H438456   4.700   6.837   5.973
  687DIO     H538457   4.701   7.033   5.583
  687DIO     H638458   4.092   7.008   5.995
  687DIO     H738459   4.080   7.230   5.617
  687DIO     H838460   3.923   7.249   5.883
  687DIO     H938461   3.887   6.886   5.833
  687DIO    H1038462   3.747   6.889   5.938
  687DIO    H1138463   3.689   6.880   5.690
  687DIO    H1238464   3.731   7.094   5.561
  687DIO    H1338465   3.878   7.009   5.606
  687DIO    H1438466   3.598   7.143   5.822
  687DIO    H1538467   3.522   7.062   5.686
  687DIO    H1638468   3.535   6.960   5.974
  687DIO    H1738469   3.396   7.026   5.890
  687DIO    H1838470   3.405   6.832   5.727
  687DIO    H1938471   3.536   6.762   5.825
  687DIO    H2038472   3.376   6.785   5.895
  688DIO     F138473   3.424   8.222   9.398
  688DIO     C138474   3.346   8.309   9.331
  688DIO     C238475   3.202   8.292   9.333
  688DIO     C338476   3.113   8.385   9.259
  688DIO     C438477   3.179   8.496   9.185
  688DIO     C538478   3.323   8.510   9.185
  688DIO     F238479   3.379   8.615   9.120
  688DIO     C638480   3.407   8.418   9.258
  688DIO     F338481   3.541   8.432   9.256
  688DIO     C738482   2.967   8.369   9.259
  688DIO     C838483   2.890   8.368   9.132
  688DIO     C938484   2.745   8.353   9.132
  688DIO    C1038485   2.673   8.348   9.258
  688DIO    C1138486   2.745   8.340   9.383
  688DIO    C1238487   2.889   8.353   9.383
  688DIO     F438488   2.954   8.351   9.501
  688DIO     O138489   2.540   8.310   9.250
  688DIO    C1338490   2.446   8.362   9.338
  688DIO     O238491   2.445   8.464   9.412
  688DIO    C1438492   2.317   8.293   9.330
  688DIO    C1538493   2.250   8.266   9.200
  688DIO     F538494   2.313   8.297   9.085
  688DIO    C1638495   2.120   8.204   9.190
  688DIO    C1738496   2.044   8.172   9.311
  688DIO    C1838497   2.113   8.181   9.439
  688DIO    C1938498   2.244   8.242   9.448
  688DIO     F638499   2.307   8.234   9.568
  688DIO    C2038500   1.903   8.118   9.302
  688DIO     O338501   1.833   8.156   9.183
  688DIO    C2138502   1.790   8.292   9.187
  688DIO    C2238503   1.701   8.317   9.308
  688DIO    C2338504   1.782   8.277   9.431
  688DIO     O438505   1.826   8.142   9.420
  688DIO    C2438506   1.568   8.238   9.304
  688DIO    C2538507   1.477   8.267   9.183
  688DIO    C2638508   1.439   8.413   9.168
  688DIO     H138509   3.160   8.210   9.390
  688DIO     H238510   3.118   8.572   9.138
  688DIO     H338511   2.941   8.374   9.038
  688DIO     H438512   2.690   8.344   9.040
  688DIO     H538513   2.691   8.331   9.476
  688DIO     H638514   2.082   8.180   9.092
  688DIO     H738515   2.070   8.138   9.529
  688DIO     H838516   1.913   8.008   9.296
  688DIO     H938517   1.876   8.358   9.188
  688DIO    H1038518   1.737   8.312   9.093
  688DIO    H1138519   1.678   8.424   9.315
  688DIO    H1238520   1.721   8.284   9.522
  688DIO    H1338521   1.868   8.343   9.445
  688DIO    H1438522   1.588   8.131   9.306
  688DIO    H1538523   1.512   8.261   9.395
  688DIO    H1638524   1.525   8.232   9.091
  688DIO    H1738525   1.386   8.208   9.195
  688DIO    H1838526   1.395   8.452   9.261
  688DIO    H1938527   1.526   8.475   9.142
  688DIO    H2038528   1.365   8.425   9.088
  689DIO     F138529   3.671   9.591   5.945
  689DIO     C138530   3.593   9.683   6.005
  689DIO     C238531   3.449   9.675   5.990
  689DIO     C338532   3.360   9.775   6.053
  689DIO     C438533   3.426   9.881   6.134
  689DIO     C538534   3.570   9.886   6.147
  689DIO     F238535   3.626   9.982   6.225
  689DIO     C638536   3.654   9.787   6.084
  689DIO     F338537   3.788   9.794   6.097
  689DIO     C738538   3.214   9.770   6.038
  689DIO     C838539   3.137   9.889   5.996
  689DIO     C938540   2.992   9.885   5.982
  689DIO    C1038541   2.920   9.764   6.018
  689DIO    C1138542   2.992   9.643   6.052
  689DIO    C1238543   3.136   9.647   6.064
  689DIO     F438544   3.201   9.535   6.101
  689DIO     O138545   2.787   9.759   5.979
  689DIO    C1338546   2.693   9.693   6.058
  689DIO     O238547   2.692   9.657   6.178
  689DIO    C1438548   2.564   9.678   5.990
  689DIO    C1538549   2.498   9.792   5.922
  689DIO     F538550   2.560   9.911   5.913
  689DIO    C1638551   2.367   9.781   5.860
  689DIO    C1738552   2.291   9.656   5.869
  689DIO    C1838553   2.360   9.538   5.920
  689DIO    C1938554   2.491   9.549   5.980
  689DIO     F638555   2.554   9.434   6.012
  689DIO    C2038556   2.150   9.646   5.815
  689DIO     O338557   2.081   9.772   5.812
  689DIO    C2138558   2.037   9.813   5.941
  689DIO    C2238559   1.948   9.707   6.005
  689DIO    C2338560   2.029   9.577   6.008
  689DIO     O438561   2.073   9.543   5.877
  689DIO    C2438562   1.815   9.685   5.930
  689DIO    C2538563   1.725   9.808   5.917
  689DIO    C2638564   1.686   9.870   6.050
  689DIO     H138565   3.407   9.595   5.931
  689DIO     H238566   3.365   9.951   6.190
  689DIO     H338567   3.188   9.981   5.971
  689DIO     H438568   2.937   9.969   5.943
  689DIO     H538569   2.938   9.552   6.074
  689DIO     H638570   2.329   9.866   5.805
  689DIO     H738571   2.317   9.440   5.908
  689DIO     H838572   2.160   9.617   5.710
  689DIO     H938573   2.124   9.834   6.005
  689DIO    H1038574   1.984   9.908   5.930
  689DIO    H1138575   1.925   9.736   6.109
  689DIO    H1238576   1.968   9.494   6.045
  689DIO    H1338577   2.115   9.586   6.075
  689DIO    H1438578   1.835   9.647   5.828
  689DIO    H1538579   1.759   9.606   5.981
  689DIO    H1638580   1.772   9.884   5.853
  689DIO    H1738581   1.633   9.778   5.865
  689DIO    H1838582   1.642   9.796   6.117
  689DIO    H1938583   1.773   9.915   6.100
  689DIO    H2038584   1.612   9.949   6.035
  690DIO     F138585   3.073   6.847   1.551
  690DIO     C138586   2.996   6.941   1.494
  690DIO     C238587   2.852   6.924   1.494
  690DIO     C338588   2.763   7.024   1.431
  690DIO     C438589   2.828   7.143   1.371
  690DIO     C538590   2.973   7.157   1.372
  690DIO     F238591   3.028   7.268   1.320
  690DIO     C638592   3.056   7.057   1.434
  690DIO     F338593   3.190   7.072   1.433
  690DIO     C738594   2.617   7.008   1.429
  690DIO     C838595   2.539   7.022   1.304
  690DIO     C938596   2.395   7.007   1.302
  690DIO    C1038597   2.322   6.988   1.426
  690DIO    C1138598   2.395   6.966   1.550
  690DIO    C1238599   2.539   6.979   1.551
  690DIO     F438600   2.604   6.964   1.669
  690DIO     O138601   2.190   6.951   1.414
  690DIO    C1338602   2.095   6.993   1.507
  690DIO     O238603   2.095   7.086   1.592
  690DIO    C1438604   1.966   6.925   1.491
  690DIO    C1538605   1.900   6.913   1.360
  690DIO     F538606   1.963   6.957   1.248
  690DIO    C1638607   1.769   6.853   1.343
  690DIO    C1738608   1.693   6.807   1.459
  690DIO    C1838609   1.762   6.802   1.587
  690DIO    C1938610   1.894   6.861   1.603
  690DIO     F638611   1.956   6.839   1.721
  690DIO    C2038612   1.553   6.754   1.444
  690DIO     O338613   1.483   6.806   1.330
  690DIO    C2138614   1.439   6.940   1.349
  690DIO    C2238615   1.350   6.952   1.472
  690DIO    C2338616   1.431   6.897   1.590
  690DIO     O438617   1.475   6.764   1.564
  690DIO    C2438618   1.218   6.874   1.459
  690DIO    C2538619   1.127   6.916   1.343
  690DIO    C2638620   1.089   7.063   1.345
  690DIO     H138621   2.809   6.836   1.541
  690DIO     H238622   2.768   7.224   1.332
  690DIO     H338623   2.591   7.039   1.210
  690DIO     H438624   2.340   7.009   1.209
  690DIO     H538625   2.340   6.946   1.641
  690DIO     H638626   1.731   6.840   1.242
  690DIO     H738627   1.719   6.748   1.671
  690DIO     H838628   1.562   6.646   1.425
  690DIO     H938629   1.526   7.006   1.358
  690DIO    H1038630   1.387   6.971   1.258
  690DIO    H1138631   1.328   7.057   1.491
  690DIO    H1238632   1.370   6.895   1.681
  690DIO    H1338633   1.517   6.962   1.612
  690DIO    H1438634   1.238   6.766   1.449
  690DIO    H1538635   1.161   6.886   1.552
  690DIO    H1638636   1.174   6.891   1.247
  690DIO    H1738637   1.035   6.856   1.348
  690DIO    H1838638   1.045   7.091   1.441
  690DIO    H1938639   1.175   7.127   1.326
  690DIO    H2038640   1.015   7.083   1.266
  691DIO     F138641   8.816   5.368   6.482
  691DIO     C138642   8.738   5.455   6.414
  691DIO     C238643   8.594   5.438   6.417
  691DIO     C338644   8.505   5.530   6.342
  691DIO     C438645   8.571   5.640   6.267
  691DIO     C538646   8.715   5.655   6.266
  691DIO     F238647   8.770   5.758   6.201
  691DIO     C638648   8.799   5.563   6.340
  691DIO     F338649   8.932   5.577   6.338
  691DIO     C738650   8.359   5.514   6.342
  691DIO     C838651   8.282   5.512   6.215
  691DIO     C938652   8.137   5.497   6.215
  691DIO    C1038653   8.064   5.493   6.341
  691DIO    C1138654   8.137   5.487   6.467
  691DIO    C1238655   8.281   5.500   6.466
  691DIO     F438656   8.346   5.499   6.585
  691DIO     O138657   7.932   5.455   6.334
  691DIO    C1338658   7.838   5.508   6.421
  691DIO     O238659   7.837   5.611   6.494
  691DIO    C1438660   7.709   5.439   6.414
  691DIO    C1538661   7.642   5.411   6.284
  691DIO     F538662   7.705   5.441   6.168
  691DIO    C1638663   7.511   5.349   6.275
  691DIO    C1738664   7.436   5.317   6.396
  691DIO    C1838665   7.504   5.328   6.524
  691DIO    C1938666   7.636   5.389   6.533
  691DIO     F638667   7.699   5.382   6.652
  691DIO    C2038668   7.295   5.263   6.388
  691DIO     O338669   7.225   5.301   6.268
  691DIO    C2138670   7.182   5.436   6.270
  691DIO    C2238671   7.093   5.463   6.391
  691DIO    C2338672   7.173   5.424   6.515
  691DIO     O438673   7.218   5.288   6.506
  691DIO    C2438674   6.960   5.384   6.388
  691DIO    C2538675   6.869   5.411   6.267
  691DIO    C2638676   6.831   5.557   6.251
  691DIO     H138677   8.551   5.357   6.474
  691DIO     H238678   8.510   5.716   6.219
  691DIO     H338679   8.333   5.517   6.120
  691DIO     H438680   8.082   5.487   6.123
  691DIO     H538681   8.082   5.479   6.560
  691DIO     H638682   7.473   5.323   6.177
  691DIO     H738683   7.462   5.286   6.614
  691DIO     H838684   7.305   5.154   6.382
  691DIO     H938685   7.268   5.503   6.271
  691DIO    H1038686   7.129   5.455   6.177
  691DIO    H1138687   7.070   5.570   6.397
  691DIO    H1238688   7.112   5.432   6.605
  691DIO    H1338689   7.260   5.490   6.528
  691DIO    H1438690   6.980   5.276   6.391
  691DIO    H1538691   6.903   5.408   6.479
  691DIO    H1638692   6.917   5.375   6.175
  691DIO    H1738693   6.777   5.352   6.279
  691DIO    H1838694   6.787   5.597   6.343
  691DIO    H1938695   6.917   5.619   6.224
  691DIO    H2038696   6.757   5.568   6.171
  692DIO     F138697   4.620   8.295   2.151
  692DIO     C138698   4.543   8.285   2.261
  692DIO     C238699   4.399   8.295   2.247
  692DIO     C338700   4.310   8.286   2.365
  692DIO     C438701   4.375   8.264   2.496
  692DIO     C538702   4.520   8.254   2.507
  692DIO     F238703   4.575   8.230   2.628
  692DIO     C638704   4.603   8.264   2.390
  692DIO     F338705   4.737   8.256   2.402
  692DIO     C738706   4.164   8.297   2.353
  692DIO     C838707   4.086   8.389   2.439
  692DIO     C938708   3.942   8.400   2.428
  692DIO    C1038709   3.869   8.311   2.339
  692DIO    C1138710   3.942   8.225   2.248
  692DIO    C1238711   4.086   8.216   2.257
  692DIO     F438712   4.151   8.131   2.175
  692DIO     O138713   3.737   8.343   2.316
  692DIO    C1338714   3.642   8.243   2.294
  692DIO     O238715   3.642   8.120   2.319
  692DIO    C1438716   3.513   8.296   2.249
  692DIO    C1538717   3.447   8.409   2.318
  692DIO     F538718   3.510   8.472   2.420
  692DIO    C1638719   3.316   8.459   2.280
  692DIO    C1738720   3.240   8.393   2.174
  692DIO    C1838721   3.309   8.293   2.093
  692DIO    C1938722   3.441   8.244   2.131
  692DIO     F638723   3.503   8.163   2.044
  692DIO    C2038724   3.100   8.436   2.140
  692DIO     O338725   3.030   8.497   2.249
  692DIO    C2138726   2.986   8.402   2.346
  692DIO    C2238727   2.897   8.296   2.282
  692DIO    C2338728   2.978   8.233   2.168
  692DIO     O438729   3.022   8.333   2.077
  692DIO    C2438730   2.765   8.353   2.227
  692DIO    C2538731   2.674   8.421   2.330
  692DIO    C2638732   2.636   8.332   2.447
  692DIO     H138733   4.356   8.309   2.148
  692DIO     H238734   4.315   8.247   2.584
  692DIO     H338735   4.138   8.455   2.508
  692DIO     H438736   3.887   8.473   2.485
  692DIO     H538737   3.887   8.163   2.177
  692DIO     H638738   3.278   8.547   2.329
  692DIO     H738739   3.266   8.257   2.000
  692DIO     H838740   3.109   8.515   2.065
  692DIO     H938741   3.073   8.356   2.394
  692DIO    H1038742   2.934   8.456   2.425
  692DIO    H1138743   2.875   8.218   2.356
  692DIO    H1238744   2.917   8.162   2.112
  692DIO    H1338745   3.064   8.178   2.207
  692DIO    H1438746   2.785   8.424   2.147
  692DIO    H1538747   2.708   8.270   2.182
  692DIO    H1638748   2.721   8.513   2.368
  692DIO    H1738749   2.582   8.453   2.279
  692DIO    H1838750   2.592   8.238   2.413
  692DIO    H1938751   2.722   8.309   2.510
  692DIO    H2038752   2.562   8.383   2.510
  693DIO     F138753   6.377   8.986   8.346
  693DIO     C138754   6.300   8.993   8.456
  693DIO     C238755   6.156   9.001   8.441
  693DIO     C338756   6.067   9.011   8.559
  693DIO     C438757   6.132   9.011   8.692
  693DIO     C538758   6.277   9.003   8.704
  693DIO     F238759   6.332   8.999   8.827
  693DIO     C638760   6.360   8.994   8.587
  693DIO     F338761   6.494   8.988   8.600
  693DIO     C738762   5.921   9.020   8.546
  693DIO     C838763   5.843   9.126   8.615
  693DIO     C938764   5.699   9.134   8.603
  693DIO    C1038765   5.626   9.032   8.529
  693DIO    C1138766   5.699   8.932   8.453
  693DIO    C1238767   5.843   8.925   8.464
  693DIO     F438768   5.908   8.828   8.397
  693DIO     O138769   5.494   9.060   8.501
  693DIO    C1338770   5.399   8.958   8.496
  693DIO     O238771   5.399   8.840   8.541
  693DIO    C1438772   5.270   9.003   8.443
  693DIO    C1538773   5.204   9.125   8.493
  693DIO     F538774   5.267   9.205   8.583
  693DIO    C1638775   5.073   9.168   8.447
  693DIO    C1738776   4.997   9.086   8.353
  693DIO    C1838777   5.066   8.974   8.290
  693DIO    C1938778   5.198   8.933   8.335
  693DIO     F638779   5.260   8.837   8.262
  693DIO    C2038780   4.857   9.123   8.312
  693DIO     O338781   4.787   9.201   8.410
  693DIO    C2138782   4.743   9.123   8.521
  693DIO    C2238783   4.654   9.008   8.476
  693DIO    C2338784   4.735   8.928   8.374
  693DIO     O438785   4.779   9.011   8.267
  693DIO    C2438786   4.522   9.055   8.412
  693DIO    C2538787   4.431   9.139   8.503
  693DIO    C2638788   4.393   9.071   8.633
  693DIO     H138789   6.113   8.999   8.341
  693DIO     H238790   6.072   9.009   8.782
  693DIO     H338791   5.895   9.201   8.673
  693DIO     H438792   5.644   9.216   8.647
  693DIO     H538793   5.644   8.860   8.394
  693DIO     H638794   5.035   9.264   8.481
  693DIO     H738795   5.023   8.923   8.204
  693DIO     H838796   4.866   9.189   8.225
  693DIO     H938797   4.830   9.085   8.576
  693DIO    H1038798   4.691   9.189   8.590
  693DIO    H1138799   4.632   8.943   8.561
  693DIO    H1238800   4.674   8.848   8.330
  693DIO    H1338801   4.821   8.879   8.421
  693DIO    H1438802   4.542   9.113   8.321
  693DIO    H1538803   4.465   8.966   8.381
  693DIO    H1638804   4.478   9.236   8.525
  693DIO    H1738805   4.339   9.163   8.447
  693DIO    H1838806   4.349   8.972   8.614
  693DIO    H1938807   4.479   9.058   8.698
  693DIO    H2038808   4.319   9.131   8.687
  694DIO     F138809   4.191   3.140   3.043
  694DIO     C138810   4.113   3.066   3.124
  694DIO     C238811   3.969   3.082   3.119
  694DIO     C338812   3.880   3.003   3.208
  694DIO     C438813   3.946   2.906   3.299
  694DIO     C538814   4.090   2.892   3.302
  694DIO     F238815   4.146   2.800   3.383
  694DIO     C638816   4.174   2.971   3.215
  694DIO     F338817   4.308   2.957   3.219
  694DIO     C738818   3.734   3.019   3.205
  694DIO     C838819   3.657   3.041   3.330
  694DIO     C938820   3.512   3.056   3.327
  694DIO    C1038821   3.440   3.040   3.203
  694DIO    C1138822   3.512   3.026   3.077
  694DIO    C1238823   3.656   3.013   3.080
  694DIO     F438824   3.721   2.995   2.963
  694DIO     O138825   3.307   3.079   3.203
  694DIO    C1338826   3.213   3.012   3.126
  694DIO     O238827   3.212   2.899   3.071
  694DIO    C1438828   3.084   3.082   3.122
  694DIO    C1538829   3.018   3.130   3.245
  694DIO     F538830   3.080   3.119   3.365
  694DIO    C1638831   2.887   3.193   3.245
  694DIO    C1738832   2.811   3.204   3.121
  694DIO    C1838833   2.880   3.174   2.996
  694DIO    C1938834   3.011   3.112   2.997
  694DIO     F638835   3.074   3.100   2.878
  694DIO    C2038836   2.670   3.259   3.120
  694DIO     O338837   2.601   3.241   3.243
  694DIO    C2138838   2.557   3.107   3.263
  694DIO    C2238839   2.468   3.062   3.148
  694DIO    C2338840   2.549   3.081   3.020
  694DIO     O438841   2.593   3.216   3.007
  694DIO    C2438842   2.335   3.140   3.139
  694DIO    C2538843   2.245   3.132   3.262
  694DIO    C2638844   2.206   2.991   3.302
  694DIO     H138845   3.927   3.153   3.049
  694DIO     H238846   3.885   2.839   3.359
  694DIO     H338847   3.708   3.051   3.424
  694DIO     H438848   3.457   3.080   3.417
  694DIO     H538849   3.458   3.019   2.984
  694DIO     H638850   2.849   3.233   3.337
  694DIO     H738851   2.837   3.201   2.900
  694DIO     H838852   2.680   3.368   3.108
  694DIO     H938853   2.644   3.041   3.273
  694DIO    H1038854   2.504   3.103   3.359
  694DIO    H1138855   2.445   2.955   3.160
  694DIO    H1238856   2.488   3.058   2.932
  694DIO    H1338857   2.635   3.013   3.017
  694DIO    H1438858   2.355   3.246   3.118
  694DIO    H1538859   2.279   3.102   3.053
  694DIO    H1638860   2.292   3.182   3.347
  694DIO    H1738861   2.153   3.189   3.241
  694DIO    H1838862   2.162   2.937   3.217
  694DIO    H1938863   2.293   2.934   3.338
  694DIO    H2038864   2.132   2.993   3.383
  695DIO     F138865   6.343   4.421   7.117
  695DIO     C138866   6.266   4.473   7.020
  695DIO     C238867   6.122   4.458   7.029
  695DIO     C338868   6.033   4.512   6.923
  695DIO     C438869   6.098   4.582   6.810
  695DIO     C538870   6.243   4.595   6.804
  695DIO     F238871   6.298   4.663   6.702
  695DIO     C638872   6.326   4.541   6.908
  695DIO     F338873   6.460   4.553   6.900
  695DIO     C738874   5.886   4.497   6.930
  695DIO     C838875   5.809   4.444   6.815
  695DIO     C938876   5.665   4.430   6.821
  695DIO    C1038877   5.592   4.478   6.937
  695DIO    C1138878   5.664   4.523   7.055
  695DIO    C1238879   5.809   4.534   7.049
  695DIO     F438880   5.873   4.582   7.158
  695DIO     O138881   5.460   4.440   6.946
  695DIO    C1338882   5.365   4.524   7.004
  695DIO     O238883   5.364   4.647   7.029
  695DIO    C1438884   5.236   4.457   7.026
  695DIO    C1538885   5.170   4.380   6.919
  695DIO     F538886   5.232   4.360   6.801
  695DIO    C1638887   5.039   4.319   6.936
  695DIO    C1738888   4.963   4.339   7.059
  695DIO    C1838889   5.032   4.401   7.171
  695DIO    C1938890   5.164   4.460   7.155
  695DIO     F638891   5.226   4.503   7.267
  695DIO    C2038892   4.823   4.287   7.074
  695DIO     O338893   4.753   4.272   6.949
  695DIO    C2138894   4.709   4.397   6.896
  695DIO    C2238895   4.620   4.471   6.996
  695DIO    C2338896   4.701   4.485   7.125
  695DIO     O438897   4.745   4.357   7.171
  695DIO    C2438898   4.487   4.397   7.024
  695DIO    C2538899   4.397   4.373   6.903
  695DIO    C2638900   4.358   4.500   6.829
  695DIO     H138901   6.079   4.407   7.114
  695DIO     H238902   6.038   4.631   6.735
  695DIO     H338903   5.861   4.410   6.726
  695DIO     H438904   5.609   4.384   6.740
  695DIO     H538905   5.610   4.553   7.143
  695DIO     H638906   5.001   4.256   6.856
  695DIO     H738907   4.989   4.399   7.271
  695DIO     H838908   4.832   4.185   7.113
  695DIO     H938909   4.796   4.458   6.869
  695DIO    H1038910   4.656   4.377   6.803
  695DIO    H1138911   4.598   4.571   6.957
  695DIO    H1238912   4.640   4.529   7.204
  695DIO    H1338913   4.787   4.551   7.110
  695DIO    H1438914   4.507   4.300   7.072
  695DIO    H1538915   4.431   4.455   7.098
  695DIO    H1638916   4.444   4.303   6.834
  695DIO    H1738917   4.305   4.324   6.938
  695DIO    H1838918   4.314   4.574   6.897
  695DIO    H1938919   4.445   4.545   6.780
  695DIO    H2038920   4.285   4.477   6.751
  696DIO     F138921   2.482   0.143   6.200
  696DIO     C138922   2.404   0.230   6.267
  696DIO     C238923   2.260   0.224   6.251
  696DIO     C338924   2.171   0.319   6.322
  696DIO     C438925   2.237   0.419   6.410
  696DIO     C538926   2.381   0.423   6.424
  696DIO     F238927   2.436   0.512   6.508
  696DIO     C638928   2.465   0.329   6.353
  696DIO     F338929   2.598   0.335   6.366
  696DIO     C738930   2.025   0.315   6.306
  696DIO     C838931   1.948   0.437   6.273
  696DIO     C938932   1.803   0.434   6.259
  696DIO    C1038933   1.730   0.311   6.286
  696DIO    C1138934   1.803   0.188   6.311
  696DIO    C1238935   1.947   0.191   6.323
  696DIO     F438936   2.012   0.076   6.352
  696DIO     O138937   1.598   0.308   6.247
  696DIO    C1338938   1.504   0.237   6.320
  696DIO     O238939   1.503   0.192   6.438
  696DIO    C1438940   1.374   0.227   6.251
  696DIO    C1538941   1.308   0.345   6.192
  696DIO     F538942   1.371   0.465   6.192
  696DIO    C1638943   1.177   0.339   6.130
  696DIO    C1738944   1.102   0.214   6.129
  696DIO    C1838945   1.170   0.093   6.171
  696DIO    C1938946   1.302   0.099   6.232
  696DIO     F638947   1.364  -0.018   6.256
  696DIO    C2038948   0.961   0.208   6.075
  696DIO     O338949   0.891   0.333   6.081
  696DIO    C2138950   0.847   0.365   6.213
  696DIO    C2238951   0.759   0.255   6.269
  696DIO    C2338952   0.839   0.125   6.262
  696DIO     O438953   0.884   0.101   6.129
  696DIO    C2438954   0.626   0.238   6.192
  696DIO    C2538955   0.535   0.362   6.188
  696DIO    C2638956   0.497   0.414   6.326
  696DIO     H138957   2.217   0.148   6.187
  696DIO     H238958   2.176   0.485   6.471
  696DIO     H338959   1.999   0.531   6.255
  696DIO     H438960   1.748   0.521   6.226
  696DIO     H538961   1.748   0.095   6.326
  696DIO     H638962   1.139   0.428   6.081
  696DIO     H738963   1.127  -0.005   6.153
  696DIO     H838964   0.971   0.187   5.968
  696DIO     H938965   0.934   0.381   6.278
  696DIO    H1038966   0.795   0.461   6.209
  696DIO    H1138967   0.736   0.276   6.374
  696DIO    H1238968   0.778   0.040   6.293
  696DIO    H1338969   0.925   0.129   6.330
  696DIO    H1438970   0.646   0.208   6.088
  696DIO    H1538971   0.569   0.156   6.237
  696DIO    H1638972   0.582   0.442   6.131
  696DIO    H1738973   0.443   0.335   6.134
  696DIO    H1838974   0.453   0.335   6.387
  696DIO    H1938975   0.583   0.455   6.379
  696DIO    H2038976   0.423   0.494   6.316
  697DIO     F138977   2.130   1.199   4.948
  697DIO     C138978   2.053   1.147   4.851
  697DIO     C238979   1.908   1.146   4.868
  697DIO     C338980   1.820   1.087   4.766
  697DIO     C438981   1.885   1.031   4.645
  697DIO     C538982   2.029   1.033   4.630
  697DIO     F238983   2.085   0.985   4.517
  697DIO     C638984   2.113   1.091   4.733
  697DIO     F338985   2.247   1.091   4.719
  697DIO     C738986   1.673   1.084   4.782
  697DIO     C838987   1.596   0.960   4.763
  697DIO     C938988   1.451   0.957   4.778
  697DIO    C1038989   1.379   1.080   4.802
  697DIO    C1138990   1.451   1.203   4.829
  697DIO    C1238991   1.595   1.205   4.816
  697DIO     F438992   1.660   1.322   4.836
  697DIO     O138993   1.247   1.067   4.839
  697DIO    C1338994   1.152   1.162   4.800
  697DIO     O238995   1.151   1.250   4.711
  697DIO    C1438996   1.023   1.143   4.867
  697DIO    C1538997   0.957   1.011   4.874
  697DIO     F538998   1.019   0.902   4.825
  697DIO    C1638999   0.826   0.992   4.933
  697DIO    C1739000   0.750   1.106   4.984
  697DIO    C1839001   0.819   1.234   4.995
  697DIO    C1939002   0.951   1.252   4.936
  697DIO     F639003   1.013   1.369   4.962
  697DIO    C2039004   0.609   1.089   5.036
  697DIO     O339005   0.540   0.977   4.980
  697DIO    C2139006   0.496   1.001   4.847
  697DIO    C2239007   0.407   1.125   4.840
  697DIO    C2339008   0.488   1.241   4.899
  697DIO     O439009   0.532   1.210   5.031
  697DIO    C2439010   0.274   1.109   4.917
  697DIO    C2539011   0.184   0.994   4.871
  697DIO    C2639012   0.145   1.002   4.724
  697DIO     H139013   1.866   1.190   4.958
  697DIO     H239014   1.825   0.996   4.562
  697DIO     H339015   1.648   0.867   4.742
  697DIO     H439016   1.396   0.864   4.772
  697DIO     H539017   1.397   1.294   4.852
  697DIO     H639018   0.788   0.891   4.943
  697DIO     H739019   0.776   1.316   5.051
  697DIO     H839020   0.619   1.066   5.143
  697DIO     H939021   0.583   1.013   4.781
  697DIO    H1039022   0.443   0.912   4.812
  697DIO    H1139023   0.385   1.148   4.735
  697DIO    H1239024   0.427   1.331   4.905
  697DIO    H1339025   0.574   1.265   4.835
  697DIO    H1439026   0.294   1.095   5.024
  697DIO    H1539027   0.218   1.203   4.909
  697DIO    H1639028   0.231   0.898   4.891
  697DIO    H1739029   0.092   0.997   4.931
  697DIO    H1839030   0.101   1.099   4.699
  697DIO    H1939031   0.232   0.986   4.659
  697DIO    H2039032   0.072   0.925   4.700
  698DIO     F139033   9.613   0.121   3.761
  698DIO     C139034   9.535   0.230   3.748
  698DIO     C239035   9.391   0.215   3.741
  698DIO     C339036   9.302   0.332   3.725
  698DIO     C439037   9.368   0.465   3.718
  698DIO     C539038   9.512   0.477   3.725
  698DIO     F239039   9.568   0.600   3.723
  698DIO     C639040   9.596   0.361   3.741
  698DIO     F339041   9.730   0.374   3.746
  698DIO     C739042   9.156   0.318   3.717
  698DIO     C839043   9.079   0.382   3.608
  698DIO     C939044   8.934   0.369   3.600
  698DIO    C1039045   8.862   0.301   3.705
  698DIO    C1139046   8.934   0.230   3.810
  698DIO    C1239047   9.078   0.241   3.816
  698DIO     F439048   9.143   0.180   3.917
  698DIO     O139049   8.729   0.271   3.679
  698DIO    C1339050   8.635   0.272   3.781
  698DIO     O239051   8.634   0.322   3.897
  698DIO    C1439052   8.506   0.217   3.739
  698DIO    C1539053   8.439   0.260   3.614
  698DIO     F539054   8.502   0.345   3.531
  698DIO    C1639055   8.309   0.211   3.574
  698DIO    C1739056   8.233   0.122   3.661
  698DIO    C1839057   8.302   0.065   3.776
  698DIO    C1939058   8.433   0.112   3.815
  698DIO     F639059   8.496   0.045   3.914
  698DIO    C2039060   8.092   0.080   3.626
  698DIO     O339061   8.022   0.173   3.543
  698DIO    C2139062   7.979   0.288   3.615
  698DIO    C2239063   7.890   0.249   3.733
  698DIO    C2339064   7.971   0.151   3.818
  698DIO     O439065   8.015   0.040   3.740
  698DIO    C2439066   7.757   0.183   3.689
  698DIO    C2539067   7.666   0.269   3.600
  698DIO    C2639068   7.628   0.402   3.661
  698DIO     H139069   9.349   0.115   3.749
  698DIO     H239070   9.307   0.555   3.716
  698DIO     H339071   9.130   0.436   3.529
  698DIO     H439072   8.879   0.409   3.516
  698DIO     H539073   8.880   0.175   3.885
  698DIO     H639074   8.271   0.240   3.477
  698DIO     H739075   8.259  -0.018   3.831
  698DIO     H839076   8.102  -0.011   3.565
  698DIO     H939077   8.065   0.345   3.650
  698DIO    H1039078   7.926   0.354   3.545
  698DIO    H1139079   7.867   0.338   3.793
  698DIO    H1239080   7.910   0.112   3.900
  698DIO    H1339081   8.057   0.201   3.864
  698DIO    H1439082   7.777   0.089   3.636
  698DIO    H1539083   7.701   0.156   3.779
  698DIO    H1639084   7.714   0.286   3.502
  698DIO    H1739085   7.575   0.212   3.580
  698DIO    H1839086   7.584   0.389   3.761
  698DIO    H1939087   7.715   0.469   3.670
  698DIO    H2039088   7.554   0.453   3.598
  699DIO     F139089   9.313   7.408   5.311
  699DIO     C139090   9.236   7.513   5.278
  699DIO     C239091   9.092   7.496   5.274
  699DIO     C339092   9.003   7.608   5.235
  699DIO     C439093   9.068   7.737   5.204
  699DIO     C539094   9.213   7.751   5.208
  699DIO     F239095   9.268   7.871   5.183
  699DIO     C639096   9.296   7.640   5.245
  699DIO     F339097   9.430   7.654   5.248
  699DIO     C739098   8.857   7.593   5.230
  699DIO     C839099   8.779   7.635   5.111
  699DIO     C939100   8.635   7.621   5.106
  699DIO    C1039101   8.562   7.574   5.222
  699DIO    C1139102   8.635   7.524   5.338
  699DIO    C1239103   8.779   7.536   5.342
  699DIO     F439104   8.844   7.495   5.452
  699DIO     O139105   8.430   7.540   5.202
  699DIO    C1339106   8.335   7.560   5.302
  699DIO     O239107   8.335   7.631   5.406
  699DIO    C1439108   8.206   7.498   5.271
  699DIO    C1539109   8.140   7.516   5.140
  699DIO     F539110   8.203   7.585   5.042
  699DIO    C1639111   8.009   7.461   5.110
  699DIO    C1739112   7.933   7.390   5.212
  699DIO    C1839113   8.002   7.355   5.336
  699DIO    C1939114   8.134   7.409   5.366
  699DIO     F639115   8.196   7.362   5.475
  699DIO    C2039116   7.793   7.342   5.186
  699DIO     O339117   7.723   7.418   5.087
  699DIO    C2139118   7.679   7.545   5.136
  699DIO    C2239119   7.590   7.528   5.259
  699DIO    C2339120   7.671   7.448   5.361
  699DIO     O439121   7.715   7.325   5.305
  699DIO    C2439122   7.458   7.455   5.228
  699DIO    C2539123   7.367   7.522   5.125
  699DIO    C2639124   7.329   7.665   5.160
  699DIO     H139125   9.049   7.400   5.300
  699DIO     H239126   9.008   7.825   5.184
  699DIO     H339127   8.831   7.673   5.024
  699DIO     H439128   8.580   7.644   5.015
  699DIO     H539129   8.580   7.484   5.422
  699DIO     H639130   7.971   7.471   5.009
  699DIO     H739131   7.959   7.285   5.406
  699DIO     H839132   7.802   7.241   5.143
  699DIO     H939133   7.766   7.607   5.159
  699DIO    H1039134   7.627   7.595   5.055
  699DIO    H1139135   7.568   7.626   5.301
  699DIO    H1239136   7.610   7.425   5.449
  699DIO    H1339137   7.757   7.506   5.397
  699DIO    H1439138   7.478   7.353   5.194
  699DIO    H1539139   7.401   7.446   5.322
  699DIO    H1639140   7.414   7.521   5.026
  699DIO    H1739141   7.275   7.463   5.115
  699DIO    H1839142   7.285   7.671   5.260
  699DIO    H1939143   7.415   7.732   5.156
  699DIO    H2039144   7.255   7.703   5.088
  700DIO     F139145   9.252   4.638   1.631
  700DIO     C139146   9.174   4.682   1.732
  700DIO     C239147   9.030   4.684   1.715
  700DIO     C339148   8.942   4.733   1.823
  700DIO     C439149   9.007   4.777   1.948
  700DIO     C539150   9.151   4.774   1.962
  700DIO     F239151   9.207   4.812   2.080
  700DIO     C639152   9.235   4.726   1.855
  700DIO     F339153   9.369   4.725   1.869
  700DIO     C739154   8.795   4.737   1.807
  700DIO     C839155   8.718   4.860   1.838
  700DIO     C939156   8.573   4.864   1.823
  700DIO    C1039157   8.501   4.743   1.787
  700DIO    C1139158   8.573   4.623   1.750
  700DIO    C1239159   8.717   4.620   1.762
  700DIO     F439160   8.782   4.506   1.731
  700DIO     O139161   8.369   4.760   1.752
  700DIO    C1339162   8.274   4.662   1.782
  700DIO     O239163   8.273   4.566   1.863
  700DIO    C1439164   8.145   4.687   1.717
  700DIO    C1539165   8.079   4.819   1.722
  700DIO     F539166   8.141   4.923   1.780
  700DIO    C1639167   7.948   4.843   1.665
  700DIO    C1739168   7.872   4.735   1.604
  700DIO    C1839169   7.941   4.608   1.581
  700DIO    C1939170   8.072   4.584   1.638
  700DIO     F639171   8.135   4.470   1.601
  700DIO    C2039172   7.731   4.756   1.553
  700DIO     O339173   7.662   4.862   1.619
  700DIO    C2139174   7.618   4.826   1.750
  700DIO    C2239175   7.529   4.702   1.745
  700DIO    C2339176   7.610   4.592   1.676
  700DIO     O439177   7.654   4.635   1.548
  700DIO    C2439178   7.396   4.725   1.670
  700DIO    C2539179   7.306   4.835   1.727
  700DIO    C2639180   7.267   4.814   1.872
  700DIO     H139181   8.988   4.649   1.622
  700DIO     H239182   8.946   4.805   2.034
  700DIO     H339183   8.770   4.950   1.867
  700DIO     H439184   8.518   4.956   1.837
  700DIO     H539185   8.519   4.535   1.718
  700DIO     H639186   7.910   4.945   1.665
  700DIO     H739187   7.898   4.532   1.518
  700DIO     H839188   7.741   4.789   1.449
  700DIO     H939189   7.705   4.809   1.815
  700DIO    H1039190   7.565   4.911   1.793
  700DIO    H1139191   7.507   4.670   1.848
  700DIO    H1239192   7.549   4.503   1.662
  700DIO    H1339193   7.696   4.563   1.737
  700DIO    H1439194   7.416   4.749   1.565
  700DIO    H1539195   7.340   4.631   1.670
  700DIO    H1639196   7.353   4.933   1.715
  700DIO    H1739197   7.214   4.838   1.667
  700DIO    H1839198   7.223   4.715   1.888
  700DIO    H1939199   7.354   4.824   1.939
  700DIO    H2039200   7.194   4.889   1.903
  701DIO     F139201   4.597   7.554   6.946
  701DIO     C139202   4.519   7.657   6.984
  701DIO     C239203   4.375   7.646   6.971
  701DIO     C339204   4.286   7.758   7.009
  701DIO     C439205   4.352   7.880   7.063
  701DIO     C539206   4.496   7.888   7.075
  701DIO     F239207   4.552   7.999   7.128
  701DIO     C639208   4.580   7.777   7.036
  701DIO     F339209   4.714   7.786   7.047
  701DIO     C739210   4.140   7.750   6.995
  701DIO     C839211   4.063   7.856   6.927
  701DIO     C939212   3.918   7.848   6.914
  701DIO    C1039213   3.846   7.739   6.977
  701DIO    C1139214   3.918   7.629   7.039
  701DIO    C1239215   4.062   7.636   7.049
  701DIO     F439216   4.127   7.536   7.112
  701DIO     O139217   3.713   7.725   6.941
  701DIO    C1339218   3.619   7.679   7.033
  701DIO     O239219   3.618   7.672   7.158
  701DIO    C1439220   3.490   7.649   6.970
  701DIO    C1539221   3.423   7.744   6.878
  701DIO     F539222   3.486   7.858   6.841
  701DIO    C1639223   3.293   7.719   6.820
  701DIO    C1739224   3.217   7.600   6.857
  701DIO    C1839225   3.286   7.497   6.934
  701DIO    C1939226   3.417   7.522   6.991
  701DIO     F639227   3.480   7.417   7.048
  701DIO    C2039228   3.076   7.578   6.807
  701DIO     O339229   3.006   7.699   6.776
  701DIO    C2139230   2.963   7.769   6.891
  701DIO    C2239231   2.874   7.681   6.979
  701DIO    C2339232   2.955   7.555   7.011
  701DIO     O439233   2.999   7.491   6.891
  701DIO    C2439234   2.741   7.642   6.910
  701DIO    C2539235   2.650   7.758   6.869
  701DIO    C2639236   2.612   7.850   6.984
  701DIO     H139237   4.333   7.554   6.933
  701DIO     H239238   4.291   7.961   7.101
  701DIO     H339239   4.114   7.939   6.881
  701DIO     H439240   3.863   7.921   6.857
  701DIO     H539241   3.864   7.546   7.081
  701DIO     H639242   3.255   7.788   6.746
  701DIO     H739243   3.243   7.398   6.946
  701DIO     H839244   3.086   7.524   6.712
  701DIO     H939245   3.049   7.804   6.948
  701DIO    H1039246   2.910   7.859   6.858
  701DIO    H1139247   2.851   7.733   7.072
  701DIO    H1239248   2.894   7.483   7.066
  701DIO    H1339249   3.041   7.579   7.074
  701DIO    H1439250   2.761   7.581   6.820
  701DIO    H1539251   2.685   7.577   6.978
  701DIO    H1639252   2.698   7.817   6.790
  701DIO    H1739253   2.559   7.717   6.825
  701DIO    H1839254   2.568   7.793   7.067
  701DIO    H1939255   2.699   7.905   7.022
  701DIO    H2039256   2.538   7.923   6.950
  702DIO     F139257   7.957   5.854   9.533
  702DIO     C139258   7.880   5.813   9.635
  702DIO     C239259   7.735   5.826   9.624
  702DIO     C339260   7.647   5.784   9.735
  702DIO     C439261   7.712   5.726   9.855
  702DIO     C539262   7.856   5.714   9.862
  702DIO     F239263   7.912   5.656   9.971
  702DIO     C639264   7.940   5.756   9.753
  702DIO     F339265   8.074   5.745   9.762
  702DIO     C739266   7.500   5.798   9.727
  702DIO     C839267   7.423   5.862   9.836
  702DIO     C939268   7.278   5.876   9.828
  702DIO    C1039269   7.206   5.816   9.717
  702DIO    C1139270   7.278   5.759   9.605
  702DIO    C1239271   7.422   5.748   9.612
  702DIO     F439272   7.487   5.690   9.509
  702DIO     O139273   7.074   5.853   9.704
  702DIO    C1339274   6.979   5.764   9.655
  702DIO     O239275   6.978   5.638   9.644
  702DIO    C1439276   6.850   5.827   9.627
  702DIO    C1539277   6.784   5.916   9.726
  702DIO     F539278   6.846   5.948   9.841
  702DIO    C1639279   6.653   5.974   9.703
  702DIO    C1739280   6.577   5.942   9.582
  702DIO    C1839281   6.646   5.869   9.477
  702DIO    C1939282   6.778   5.811   9.499
  702DIO     F639283   6.840   5.758   9.392
  702DIO    C2039284   6.436   5.993   9.562
  702DIO     O339285   6.367   6.020   9.684
  702DIO    C2139286   6.323   5.901   9.750
  702DIO    C2239287   6.234   5.818   9.659
  702DIO    C2339288   6.315   5.790   9.532
  702DIO     O439289   6.359   5.912   9.473
  702DIO    C2439290   6.101   5.888   9.622
  702DIO    C2539291   6.011   5.924   9.740
  702DIO    C2639292   5.972   5.806   9.827
  702DIO     H139293   7.693   5.868   9.534
  702DIO     H239294   7.652   5.684   9.934
  702DIO     H339295   7.475   5.905   9.921
  702DIO     H439296   7.223   5.930   9.904
  702DIO     H539297   7.224   5.720   9.520
  702DIO     H639298   6.615   6.045   9.775
  702DIO     H739299   6.603   5.860   9.377
  702DIO     H839300   6.446   6.090   9.512
  702DIO     H939301   6.410   5.843   9.783
  702DIO    H1039302   6.270   5.931   9.841
  702DIO    H1139303   6.212   5.722   9.707
  702DIO    H1239304   6.254   5.737   9.458
  702DIO    H1339305   6.401   5.726   9.553
  702DIO    H1439306   6.121   5.979   9.565
  702DIO    H1539307   6.045   5.822   9.555
  702DIO    H1639308   6.058   6.001   9.802
  702DIO    H1739309   5.919   5.969   9.700
  702DIO    H1839310   5.928   5.725   9.768
  702DIO    H1939311   6.059   5.766   9.881
  702DIO    H2039312   5.899   5.836   9.902
  703DIO     F139313   5.294   0.985   6.911
  703DIO     C139314   5.217   1.022   6.807
  703DIO     C239315   5.072   1.009   6.818
  703DIO     C339316   4.984   1.046   6.705
  703DIO     C439317   5.049   1.099   6.584
  703DIO     C539318   5.193   1.111   6.575
  703DIO     F239319   5.249   1.164   6.464
  703DIO     C639320   5.277   1.073   6.686
  703DIO     F339321   5.411   1.084   6.677
  703DIO     C739322   4.837   1.033   6.714
  703DIO     C839323   4.760   0.964   6.608
  703DIO     C939324   4.615   0.951   6.616
  703DIO    C1039325   4.543   1.015   6.725
  703DIO    C1139326   4.615   1.077   6.834
  703DIO    C1239327   4.759   1.087   6.827
  703DIO     F439328   4.824   1.150   6.927
  703DIO     O139329   4.411   0.979   6.739
  703DIO    C1339330   4.316   1.070   6.784
  703DIO     O239331   4.315   1.196   6.790
  703DIO    C1439332   4.187   1.008   6.815
  703DIO    C1539333   4.121   0.915   6.721
  703DIO     F539334   4.183   0.878   6.607
  703DIO    C1639335   3.990   0.858   6.746
  703DIO    C1739336   3.914   0.896   6.865
  703DIO    C1839337   3.983   0.973   6.967
  703DIO    C1939338   4.115   1.029   6.942
  703DIO     F639339   4.177   1.088   7.047
  703DIO    C2039340   3.773   0.846   6.887
  703DIO     O339341   3.704   0.813   6.767
  703DIO    C2139342   3.660   0.929   6.696
  703DIO    C2239343   3.571   1.016   6.783
  703DIO    C2339344   3.652   1.049   6.909
  703DIO     O439345   3.696   0.930   6.973
  703DIO    C2439346   3.438   0.948   6.823
  703DIO    C2539347   3.348   0.906   6.706
  703DIO    C2639348   3.309   1.021   6.614
  703DIO     H139349   5.030   0.971   6.910
  703DIO     H239350   4.989   1.137   6.502
  703DIO     H339351   4.812   0.917   6.525
  703DIO     H439352   4.560   0.893   6.543
  703DIO     H539353   4.561   1.120   6.917
  703DIO     H639354   3.952   0.784   6.677
  703DIO     H739355   3.940   0.986   7.066
  703DIO     H839356   3.783   0.751   6.941
  703DIO     H939357   3.747   0.985   6.660
  703DIO    H1039358   3.607   0.895   6.606
  703DIO    H1139359   3.549   1.110   6.731
  703DIO    H1239360   3.591   1.105   6.980
  703DIO    H1339361   3.738   1.113   6.884
  703DIO    H1439362   3.458   0.859   6.883
  703DIO    H1539363   3.382   1.016   6.887
  703DIO    H1639364   3.395   0.827   6.648
  703DIO    H1739365   3.256   0.863   6.748
  703DIO    H1839366   3.265   1.104   6.670
  703DIO    H1939367   3.396   1.058   6.559
  703DIO    H2039368   3.236   0.987   6.541
  704DIO     F139369   7.630   6.740   9.823
  704DIO     C139370   7.552   6.633   9.799
  704DIO     C239371   7.408   6.645   9.811
  704DIO     C339372   7.319   6.529   9.787
  704DIO     C439373   7.385   6.402   9.750
  704DIO     C539374   7.529   6.392   9.739
  704DIO     F239375   7.585   6.275   9.701
  704DIO     C639376   7.613   6.507   9.763
  704DIO     F339377   7.747   6.496   9.753
  704DIO     C739378   7.173   6.539   9.800
  704DIO     C839379   7.096   6.443   9.881
  704DIO     C939380   6.951   6.453   9.893
  704DIO    C1039381   6.879   6.552   9.816
  704DIO    C1139382   6.951   6.653   9.741
  704DIO    C1239383   7.095   6.645   9.732
  704DIO     F439384   7.160   6.737   9.657
  704DIO     O139385   6.746   6.571   9.850
  704DIO    C1339386   6.652   6.604   9.754
  704DIO     O239387   6.651   6.595   9.628
  704DIO    C1439388   6.523   6.643   9.812
  704DIO    C1539389   6.456   6.561   9.916
  704DIO     F539390   6.519   6.452   9.966
  704DIO    C1639391   6.326   6.593   9.970
  704DIO    C1739392   6.250   6.706   9.917
  704DIO    C1839393   6.319   6.798   9.827
  704DIO    C1939394   6.450   6.766   9.775
  704DIO     F639395   6.513   6.863   9.704
  704DIO    C2039396   6.109   6.735   9.964
  704DIO     O339397   6.039   6.619  10.011
  704DIO    C2139398   5.996   6.534   9.905
  704DIO    C2239399   5.907   6.610   9.808
  704DIO    C2339400   5.988   6.731   9.759
  704DIO     O439401   6.032   6.809   9.870
  704DIO    C2439402   5.774   6.658   9.871
  704DIO    C2539403   5.683   6.547   9.926
  704DIO    C2639404   5.645   6.442   9.824
  704DIO     H139405   7.366   6.742   9.837
  704DIO     H239406   7.324   6.316   9.722
  704DIO     H339407   7.147   6.367   9.938
  704DIO     H439408   6.896   6.387   9.959
  704DIO     H539409   6.897   6.730   9.688
  704DIO     H639410   6.288   6.533  10.052
  704DIO     H739411   6.276   6.895   9.803
  704DIO     H839412   6.119   6.800  10.052
  704DIO     H939413   6.082   6.492   9.853
  704DIO    H1039414   5.943   6.449   9.950
  704DIO    H1139415   5.884   6.546   9.721
  704DIO    H1239416   5.927   6.795   9.695
  704DIO    H1339417   6.074   6.699   9.699
  704DIO    H1439418   5.794   6.729   9.952
  704DIO    H1539419   5.718   6.713   9.795
  704DIO    H1639420   5.731   6.499  10.013
  704DIO    H1739421   5.592   6.594   9.964
  704DIO    H1839422   5.601   6.487   9.735
  704DIO    H1939423   5.732   6.382   9.793
  704DIO    H2039424   5.571   6.373   9.867
  705DIO     F139425   9.273   7.065   2.288
  705DIO     C139426   9.196   6.994   2.372
  705DIO     C239427   9.052   7.010   2.366
  705DIO     C339428   8.963   6.936   2.459
  705DIO     C439429   9.028   6.844   2.555
  705DIO     C539430   9.173   6.830   2.558
  705DIO     F239431   9.228   6.742   2.644
  705DIO     C639432   9.256   6.904   2.467
  705DIO     F339433   9.390   6.891   2.472
  705DIO     C739434   8.816   6.952   2.455
  705DIO     C839435   8.739   6.980   2.579
  705DIO     C939436   8.595   6.994   2.575
  705DIO    C1039437   8.522   6.972   2.452
  705DIO    C1139438   8.595   6.952   2.327
  705DIO    C1239439   8.739   6.940   2.330
  705DIO     F439440   8.804   6.916   2.215
  705DIO     O139441   8.390   7.011   2.451
  705DIO    C1339442   8.295   6.941   2.377
  705DIO     O239443   8.294   6.825   2.327
  705DIO    C1439444   8.166   7.010   2.369
  705DIO    C1539445   8.100   7.064   2.490
  705DIO     F539446   8.163   7.059   2.610
  705DIO    C1639447   7.969   7.127   2.486
  705DIO    C1739448   7.893   7.132   2.362
  705DIO    C1839449   7.962   7.095   2.238
  705DIO    C1939450   8.094   7.034   2.243
  705DIO     F639451   8.156   7.016   2.124
  705DIO    C2039452   7.753   7.187   2.358
  705DIO     O339453   7.683   7.176   2.482
  705DIO    C2139454   7.639   7.043   2.509
  705DIO    C2239455   7.550   6.991   2.396
  705DIO    C2339456   7.631   7.004   2.267
  705DIO     O439457   7.675   7.138   2.248
  705DIO    C2439458   7.418   7.069   2.383
  705DIO    C2539459   7.327   7.068   2.507
  705DIO    C2639460   7.288   6.928   2.553
  705DIO     H139461   9.009   7.078   2.293
  705DIO     H239462   8.968   6.780   2.618
  705DIO     H339463   8.791   6.994   2.672
  705DIO     H439464   8.540   7.023   2.664
  705DIO     H539465   8.540   6.941   2.235
  705DIO     H639466   7.931   7.172   2.577
  705DIO     H739467   7.919   7.118   2.142
  705DIO     H839468   7.762   7.295   2.340
  705DIO     H939469   7.726   6.977   2.522
  705DIO    H1039470   7.586   7.043   2.605
  705DIO    H1139471   7.528   6.885   2.413
  705DIO    H1239472   7.570   6.976   2.180
  705DIO    H1339473   7.717   6.936   2.268
  705DIO    H1439474   7.437   7.174   2.357
  705DIO    H1539475   7.361   7.027   2.299
  705DIO    H1639476   7.374   7.122   2.589
  705DIO    H1739477   7.235   7.123   2.482
  705DIO    H1839478   7.245   6.870   2.472
  705DIO    H1939479   7.375   6.874   2.592
  705DIO    H2039480   7.215   6.934   2.634
  706DIO     F139481   7.329   1.192   8.258
  706DIO     C139482   7.251   1.084   8.282
  706DIO     C239483   7.107   1.100   8.287
  706DIO     C339484   7.019   0.985   8.315
  706DIO     C439485   7.084   0.854   8.334
  706DIO     C539486   7.228   0.840   8.329
  706DIO     F239487   7.284   0.718   8.343
  706DIO     C639488   7.312   0.955   8.302
  706DIO     F339489   7.446   0.941   8.298
  706DIO     C739490   6.872   1.000   8.322
  706DIO     C839491   6.795   0.947   8.436
  706DIO     C939492   6.650   0.960   8.443
  706DIO    C1039493   6.578   1.018   8.331
  706DIO    C1139494   6.650   1.078   8.221
  706DIO    C1239495   6.794   1.067   8.216
  706DIO     F439496   6.859   1.119   8.109
  706DIO     O139497   6.446   1.050   8.355
  706DIO    C1339498   6.351   1.039   8.253
  706DIO     O239499   6.350   0.978   8.143
  706DIO    C1439500   6.222   1.099   8.290
  706DIO    C1539501   6.156   1.068   8.418
  706DIO     F539502   6.218   0.991   8.510
  706DIO    C1639503   6.025   1.120   8.453
  706DIO    C1739504   5.949   1.200   8.358
  706DIO    C1839505   6.018   1.246   8.238
  706DIO    C1939506   6.149   1.195   8.204
  706DIO     F639507   6.212   1.253   8.099
  706DIO    C2039508   5.808   1.246   8.389
  706DIO     O339509   5.739   1.160   8.480
  706DIO    C2139510   5.695   1.039   8.420
  706DIO    C2239511   5.606   1.067   8.299
  706DIO    C2339512   5.687   1.156   8.205
  706DIO     O439513   5.731   1.274   8.272
  706DIO    C2439514   5.473   1.137   8.336
  706DIO    C2539515   5.383   1.060   8.433
  706DIO    C2639516   5.344   0.921   8.385
  706DIO     H139517   7.065   1.199   8.270
  706DIO     H239518   7.023   0.764   8.345
  706DIO     H339519   6.847   0.901   8.520
  706DIO     H439520   6.595   0.929   8.530
  706DIO     H539521   6.596   1.126   8.141
  706DIO     H639522   5.987   1.100   8.553
  706DIO     H739523   5.975   1.323   8.176
  706DIO     H839524   5.818   1.342   8.441
  706DIO     H939525   5.782   0.979   8.390
  706DIO    H1039526   5.642   0.981   8.496
  706DIO    H1139527   5.584   0.973   8.248
  706DIO    H1239528   5.626   1.188   8.119
  706DIO    H1339529   5.773   1.102   8.164
  706DIO    H1439530   5.493   1.236   8.380
  706DIO    H1539531   5.417   1.155   8.244
  706DIO    H1639532   5.430   1.053   8.532
  706DIO    H1739533   5.291   1.119   8.448
  706DIO    H1839534   5.300   0.925   8.285
  706DIO    H1939535   5.431   0.854   8.382
  706DIO    H2039536   5.271   0.877   8.452
  707DIO     F139537   9.952   5.114   1.210
  707DIO     C139538   9.875   5.217   1.247
  707DIO     C239539   9.731   5.206   1.234
  707DIO     C339540   9.642   5.319   1.272
  707DIO     C439541   9.707   5.440   1.325
  707DIO     C539542   9.852   5.449   1.337
  707DIO     F239543   9.907   5.560   1.390
  707DIO     C639544   9.935   5.338   1.299
  707DIO     F339545  10.069   5.347   1.310
  707DIO     C739546   9.495   5.310   1.258
  707DIO     C839547   9.418   5.416   1.190
  707DIO     C939548   9.274   5.408   1.177
  707DIO    C1039549   9.201   5.300   1.240
  707DIO    C1139550   9.274   5.190   1.302
  707DIO    C1239551   9.418   5.197   1.313
  707DIO     F439552   9.483   5.097   1.375
  707DIO     O139553   9.069   5.285   1.204
  707DIO    C1339554   8.974   5.240   1.296
  707DIO     O239555   8.973   5.233   1.421
  707DIO    C1439556   8.845   5.209   1.233
  707DIO    C1539557   8.779   5.304   1.141
  707DIO     F539558   8.842   5.418   1.104
  707DIO    C1639559   8.648   5.278   1.083
  707DIO    C1739560   8.572   5.160   1.121
  707DIO    C1839561   8.641   5.057   1.198
  707DIO    C1939562   8.773   5.082   1.254
  707DIO     F639563   8.835   4.977   1.312
  707DIO    C2039564   8.432   5.137   1.071
  707DIO     O339565   8.362   5.258   1.039
  707DIO    C2139566   8.318   5.329   1.154
  707DIO    C2239567   8.229   5.241   1.242
  707DIO    C2339568   8.310   5.115   1.274
  707DIO     O439569   8.354   5.051   1.155
  707DIO    C2439570   8.097   5.202   1.173
  707DIO    C2539571   8.006   5.318   1.132
  707DIO    C2639572   7.967   5.410   1.247
  707DIO     H139573   9.688   5.114   1.196
  707DIO     H239574   9.647   5.522   1.363
  707DIO     H339575   9.470   5.499   1.143
  707DIO     H439576   9.219   5.481   1.119
  707DIO     H539577   9.219   5.107   1.345
  707DIO     H639578   8.610   5.348   1.009
  707DIO     H739579   8.598   4.958   1.210
  707DIO     H839580   8.441   5.084   0.976
  707DIO     H939581   8.405   5.364   1.211
  707DIO    H1039582   8.265   5.418   1.121
  707DIO    H1139583   8.207   5.293   1.335
  707DIO    H1239584   8.249   5.043   1.330
  707DIO    H1339585   8.396   5.139   1.338
  707DIO    H1439586   8.116   5.141   1.084
  707DIO    H1539587   8.040   5.137   1.242
  707DIO    H1639588   8.053   5.377   1.052
  707DIO    H1739589   7.914   5.276   1.088
  707DIO    H1839590   7.924   5.354   1.330
  707DIO    H1939591   8.054   5.465   1.285
  707DIO    H2039592   7.894   5.484   1.213
  708DIO     F139593   5.674   1.064   2.202
  708DIO     C139594   5.597   0.963   2.159
  708DIO     C239595   5.452   0.973   2.173
  708DIO     C339596   5.364   0.863   2.129
  708DIO     C439597   5.429   0.744   2.069
  708DIO     C539598   5.573   0.736   2.057
  708DIO     F239599   5.629   0.629   1.998
  708DIO     C639600   5.657   0.845   2.101
  708DIO     F339601   5.791   0.836   2.090
  708DIO     C739602   5.217   0.870   2.143
  708DIO     C839603   5.140   0.761   2.206
  708DIO     C939604   4.995   0.768   2.219
  708DIO    C1039605   4.923   0.880   2.161
  708DIO    C1139606   4.995   0.993   2.106
  708DIO    C1239607   5.139   0.986   2.095
  708DIO     F439608   5.204   1.090   2.038
  708DIO     O139609   4.791   0.892   2.198
  708DIO    C1339610   4.696   0.943   2.109
  708DIO     O239611   4.695   0.956   1.984
  708DIO    C1439612   4.567   0.970   2.174
  708DIO    C1539613   4.501   0.870   2.261
  708DIO     F539614   4.563   0.755   2.291
  708DIO    C1639615   4.370   0.893   2.319
  708DIO    C1739616   4.294   1.013   2.288
  708DIO    C1839617   4.363   1.120   2.217
  708DIO    C1939618   4.495   1.098   2.159
  708DIO     F639619   4.557   1.206   2.107
  708DIO    C2039620   4.153   1.033   2.340
  708DIO     O339621   4.084   0.910   2.365
  708DIO    C2139622   4.040   0.846   2.246
  708DIO    C2239623   3.951   0.939   2.163
  708DIO    C2339624   4.032   1.066   2.138
  708DIO     O439625   4.076   1.123   2.260
  708DIO    C2439626   3.818   0.974   2.234
  708DIO    C2539627   3.728   0.856   2.269
  708DIO    C2639628   3.689   0.770   2.149
  708DIO     H139629   5.410   1.063   2.216
  708DIO     H239630   5.369   0.665   2.026
  708DIO     H339631   5.192   0.676   2.248
  708DIO     H439632   4.940   0.692   2.272
  708DIO     H539633   4.941   1.078   2.068
  708DIO     H639634   4.332   0.819   2.390
  708DIO     H739635   4.320   1.219   2.210
  708DIO     H839636   4.163   1.081   2.437
  708DIO     H939637   4.127   0.814   2.187
  708DIO    H1039638   3.987   0.755   2.274
  708DIO    H1139639   3.929   0.891   2.067
  708DIO    H1239640   3.971   1.141   2.086
  708DIO    H1339641   4.118   1.045   2.073
  708DIO    H1439642   3.838   1.030   2.326
  708DIO    H1539643   3.762   1.042   2.169
  708DIO    H1639644   3.775   0.793   2.345
  708DIO    H1739645   3.636   0.895   2.314
  708DIO    H1839646   3.645   0.831   2.069
  708DIO    H1939647   3.776   0.717   2.108
  708DIO    H2039648   3.616   0.695   2.179
  709DIO     F139649   5.183   2.412   8.313
  709DIO     C139650   5.106   2.473   8.405
  709DIO     C239651   4.962   2.472   8.388
  709DIO     C339652   4.873   2.540   8.485
  709DIO     C439653   4.938   2.606   8.600
  709DIO     C539654   5.083   2.606   8.615
  709DIO     F239655   5.138   2.664   8.723
  709DIO     C639656   5.166   2.539   8.518
  709DIO     F339657   5.300   2.540   8.532
  709DIO     C739658   4.727   2.541   8.469
  709DIO     C839659   4.649   2.667   8.477
  709DIO     C939660   4.505   2.668   8.461
  709DIO    C1039661   4.432   2.543   8.448
  709DIO    C1139662   4.505   2.419   8.433
  709DIO    C1239663   4.649   2.418   8.445
  709DIO     F439664   4.714   2.300   8.436
  709DIO     O139665   4.300   2.553   8.410
  709DIO    C1339666   4.205   2.463   8.457
  709DIO     O239667   4.205   2.383   8.554
  709DIO    C1439668   4.076   2.475   8.389
  709DIO    C1539669   4.010   2.606   8.371
  709DIO     F539670   4.073   2.719   8.409
  709DIO    C1639671   3.879   2.620   8.309
  709DIO    C1739672   3.803   2.502   8.269
  709DIO    C1839673   3.872   2.373   8.270
  709DIO    C1939674   4.004   2.360   8.330
  709DIO     F639675   4.066   2.241   8.315
  709DIO    C2039676   3.663   2.514   8.215
  709DIO     O339677   3.593   2.630   8.261
  709DIO    C2139678   3.549   2.618   8.396
  709DIO    C2239679   3.460   2.495   8.414
  709DIO    C2339680   3.541   2.375   8.366
  709DIO     O439681   3.585   2.394   8.232
  709DIO    C2439682   3.328   2.505   8.336
  709DIO    C2539683   3.237   2.623   8.372
  709DIO    C2639684   3.199   2.629   8.519
  709DIO     H139685   4.919   2.421   8.303
  709DIO     H239686   4.878   2.649   8.679
  709DIO     H339687   4.701   2.762   8.489
  709DIO     H439688   4.450   2.761   8.459
  709DIO     H539689   4.450   2.326   8.418
  709DIO     H639690   3.841   2.720   8.291
  709DIO     H739691   3.829   2.287   8.221
  709DIO     H839692   3.672   2.527   8.107
  709DIO     H939693   3.636   2.613   8.463
  709DIO    H1039694   3.497   2.710   8.423
  709DIO    H1139695   3.438   2.482   8.521
  709DIO    H1239696   3.480   2.284   8.368
  709DIO    H1339697   3.627   2.357   8.431
  709DIO    H1439698   3.348   2.509   8.228
  709DIO    H1539699   3.271   2.412   8.353
  709DIO    H1639700   3.284   2.717   8.343
  709DIO    H1739701   3.145   2.615   8.312
  709DIO    H1839702   3.155   2.534   8.552
  709DIO    H1939703   3.285   2.651   8.582
  709DIO    H2039704   3.125   2.708   8.535
  710DIO     F139705   4.085   6.386   9.896
  710DIO     C139706   4.008   6.431   9.796
  710DIO     C239707   3.864   6.418   9.806
  710DIO     C339708   3.775   6.465   9.697
  710DIO     C439709   3.840   6.528   9.580
  710DIO     C539710   3.985   6.541   9.573
  710DIO     F239711   4.040   6.603   9.467
  710DIO     C639712   4.068   6.493   9.680
  710DIO     F339713   4.202   6.505   9.672
  710DIO     C739714   3.629   6.450   9.704
  710DIO     C839715   3.551   6.391   9.593
  710DIO     C939716   3.407   6.377   9.600
  710DIO    C1039717   3.334   6.432   9.713
  710DIO    C1139718   3.407   6.484   9.828
  710DIO    C1239719   3.551   6.495   9.822
  710DIO     F439720   3.616   6.549   9.927
  710DIO     O139721   3.202   6.394   9.725
  710DIO    C1339722   3.107   6.482   9.777
  710DIO     O239723   3.107   6.606   9.795
  710DIO    C1439724   2.978   6.417   9.803
  710DIO    C1539725   2.912   6.333   9.701
  710DIO     F539726   2.975   6.306   9.584
  710DIO    C1639727   2.781   6.273   9.721
  710DIO    C1739728   2.705   6.301   9.843
  710DIO    C1839729   2.774   6.369   9.951
  710DIO    C1939730   2.906   6.427   9.931
  710DIO     F639731   2.968   6.476  10.041
  710DIO    C2039732   2.565   6.249   9.861
  710DIO     O339733   2.495   6.227   9.737
  710DIO    C2139734   2.451   6.348   9.677
  710DIO    C2239735   2.362   6.428   9.772
  710DIO    C2339736   2.443   6.450   9.900
  710DIO     O439737   2.487   6.326   9.954
  710DIO    C2439738   2.230   6.356   9.805
  710DIO    C2539739   2.139   6.325   9.685
  710DIO    C2639740   2.101   6.447   9.604
  710DIO     H139741   3.821   6.372   9.894
  710DIO     H239742   3.780   6.573   9.502
  710DIO     H339743   3.603   6.352   9.506
  710DIO     H439744   3.352   6.326   9.522
  710DIO     H539745   3.352   6.519   9.914
  710DIO     H639746   2.743   6.205   9.646
  710DIO     H739747   2.731   6.373  10.051
  710DIO     H839748   2.574   6.149   9.906
  710DIO     H939749   2.538   6.408   9.646
  710DIO    H1039750   2.399   6.323   9.585
  710DIO    H1139751   2.340   6.525   9.727
  710DIO    H1239752   2.382   6.499   9.976
  710DIO    H1339753   2.529   6.515   9.881
  710DIO    H1439754   2.250   6.262   9.858
  710DIO    H1539755   2.173   6.419   9.875
  710DIO    H1639756   2.186   6.251   9.620
  710DIO    H1739757   2.047   6.278   9.723
  710DIO    H1839758   2.057   6.525   9.667
  710DIO    H1939759   2.187   6.490   9.552
  710DIO    H2039760   2.027   6.420   9.528
  711DIO     F139761   5.694   5.744   4.349
  711DIO     C139762   5.616   5.725   4.241
  711DIO     C239763   5.472   5.719   4.256
  711DIO     C339764   5.384   5.696   4.140
  711DIO     C439765   5.449   5.683   4.008
  711DIO     C539766   5.593   5.689   3.995
  711DIO     F239767   5.649   5.680   3.872
  711DIO     C639768   5.677   5.711   4.110
  711DIO     F339769   5.811   5.715   4.097
  711DIO     C739770   5.237   5.689   4.154
  711DIO     C839771   5.160   5.577   4.096
  711DIO     C939772   5.015   5.570   4.110
  711DIO    C1039773   4.943   5.678   4.172
  711DIO    C1139774   5.015   5.786   4.237
  711DIO    C1239775   5.159   5.792   4.226
  711DIO     F439776   5.224   5.896   4.282
  711DIO     O139777   4.811   5.654   4.203
  711DIO    C1339778   4.716   5.756   4.197
  711DIO     O239779   4.715   5.869   4.141
  711DIO    C1439780   4.587   5.717   4.255
  711DIO    C1539781   4.521   5.590   4.218
  711DIO     F539782   4.583   5.502   4.137
  711DIO    C1639783   4.390   5.552   4.268
  711DIO    C1739784   4.314   5.644   4.353
  711DIO    C1839785   4.383   5.762   4.404
  711DIO    C1939786   4.514   5.798   4.355
  711DIO     F639787   4.577   5.900   4.417
  711DIO    C2039788   4.173   5.611   4.397
  711DIO     O339789   4.104   5.523   4.308
  711DIO    C2139790   4.060   5.589   4.189
  711DIO    C2239791   3.971   5.709   4.223
  711DIO    C2339792   4.052   5.799   4.316
  711DIO     O439793   4.096   5.727   4.431
  711DIO    C2439794   3.838   5.668   4.291
  711DIO    C2539795   3.748   5.575   4.210
  711DIO    C2639796   3.709   5.629   4.073
  711DIO     H139797   5.430   5.731   4.355
  711DIO     H239798   5.388   5.676   3.918
  711DIO     H339799   5.212   5.495   4.047
  711DIO     H439800   4.960   5.483   4.074
  711DIO     H539801   4.961   5.864   4.289
  711DIO     H639802   4.352   5.454   4.245
  711DIO     H739803   4.340   5.821   4.484
  711DIO     H839804   4.183   5.555   4.491
  711DIO     H939805   4.147   5.621   4.131
  711DIO    H1039806   4.007   5.516   4.128
  711DIO    H1139807   3.949   5.764   4.131
  711DIO    H1239808   3.991   5.883   4.351
  711DIO    H1339809   4.138   5.842   4.264
  711DIO    H1439810   3.858   5.620   4.387
  711DIO    H1539811   3.782   5.760   4.313
  711DIO    H1639812   3.795   5.477   4.198
  711DIO    H1739813   3.656   5.558   4.268
  711DIO    H1839814   3.665   5.729   4.081
  711DIO    H1939815   3.796   5.635   4.006
  711DIO    H2039816   3.636   5.564   4.026
  712DIO     F139817   7.947   0.907   6.432
  712DIO     C139818   7.869   0.798   6.414
  712DIO     C239819   7.725   0.811   6.425
  712DIO     C339820   7.636   0.694   6.408
  712DIO     C439821   7.702   0.565   6.377
  712DIO     C539822   7.846   0.555   6.366
  712DIO     F239823   7.901   0.436   6.334
  712DIO     C639824   7.930   0.671   6.384
  712DIO     F339825   8.063   0.660   6.376
  712DIO     C739826   7.490   0.705   6.420
  712DIO     C839827   7.413   0.613   6.506
  712DIO     C939828   7.268   0.623   6.517
  712DIO    C1039829   7.195   0.718   6.435
  712DIO    C1139830   7.268   0.815   6.355
  712DIO    C1239831   7.412   0.807   6.346
  712DIO     F439832   7.477   0.894   6.267
  712DIO     O139833   7.063   0.739   6.469
  712DIO    C1339834   6.969   0.767   6.370
  712DIO     O239835   6.968   0.752   6.245
  712DIO    C1439836   6.839   0.809   6.427
  712DIO    C1539837   6.773   0.732   6.534
  712DIO     F539838   6.836   0.626   6.590
  712DIO    C1639839   6.642   0.767   6.586
  712DIO    C1739840   6.567   0.877   6.528
  712DIO    C1839841   6.635   0.965   6.434
  712DIO    C1939842   6.767   0.930   6.383
  712DIO     F639843   6.829   1.023   6.308
  712DIO    C2039844   6.426   0.908   6.574
  712DIO     O339845   6.356   0.795   6.627
  712DIO    C2139846   6.312   0.705   6.525
  712DIO    C2239847   6.224   0.776   6.424
  712DIO    C2339848   6.304   0.894   6.369
  712DIO     O439849   6.349   0.978   6.475
  712DIO    C2439850   6.091   0.827   6.484
  712DIO    C2539851   6.000   0.719   6.546
  712DIO    C2639852   5.962   0.609   6.449
  712DIO     H139853   7.682   0.909   6.446
  712DIO     H239854   7.641   0.478   6.354
  712DIO     H339855   7.464   0.539   6.566
  712DIO     H439856   7.213   0.561   6.587
  712DIO     H539857   7.213   0.890   6.299
  712DIO     H639858   6.604   0.712   6.671
  712DIO     H739859   6.592   1.060   6.405
  712DIO     H839860   6.436   0.978   6.658
  712DIO     H939861   6.399   0.660   6.476
  712DIO    H1039862   6.260   0.623   6.574
  712DIO    H1139863   6.201   0.708   6.341
  712DIO    H1239864   6.243   0.955   6.302
  712DIO    H1339865   6.390   0.859   6.311
  712DIO    H1439866   6.111   0.902   6.562
  712DIO    H1539867   6.034   0.878   6.406
  712DIO    H1639868   6.047   0.676   6.634
  712DIO    H1739869   5.908   0.768   6.581
  712DIO    H1839870   5.918   0.650   6.357
  712DIO    H1939871   6.048   0.548   6.421
  712DIO    H2039872   5.888   0.542   6.495
  713DIO     F139873   5.887   5.178   2.627
  713DIO     C139874   5.809   5.071   2.603
  713DIO     C239875   5.665   5.083   2.614
  713DIO     C339876   5.576   4.967   2.590
  713DIO     C439877   5.642   4.840   2.552
  713DIO     C539878   5.786   4.831   2.541
  713DIO     F239879   5.841   4.714   2.502
  713DIO     C639880   5.870   4.945   2.566
  713DIO     F339881   6.003   4.935   2.556
  713DIO     C739882   5.430   4.978   2.603
  713DIO     C839883   5.353   4.881   2.684
  713DIO     C939884   5.208   4.890   2.695
  713DIO    C1039885   5.135   4.990   2.619
  713DIO    C1139886   5.208   5.092   2.545
  713DIO    C1239887   5.352   5.084   2.535
  713DIO     F439888   5.417   5.176   2.461
  713DIO     O139889   5.003   5.009   2.654
  713DIO    C1339890   4.909   5.043   2.557
  713DIO     O239891   4.908   5.034   2.432
  713DIO    C1439892   4.780   5.081   2.616
  713DIO    C1539893   4.713   4.998   2.719
  713DIO     F539894   4.776   4.889   2.769
  713DIO    C1639895   4.582   5.030   2.773
  713DIO    C1739896   4.507   5.143   2.721
  713DIO    C1839897   4.575   5.236   2.632
  713DIO    C1939898   4.707   5.205   2.580
  713DIO     F639899   4.770   5.302   2.509
  713DIO    C2039900   4.366   5.172   2.768
  713DIO     O339901   4.296   5.055   2.815
  713DIO    C2139902   4.253   4.971   2.708
  713DIO    C2239903   4.164   5.048   2.611
  713DIO    C2339904   4.244   5.169   2.564
  713DIO     O439905   4.289   5.247   2.674
  713DIO    C2439906   4.031   5.095   2.675
  713DIO    C2539907   3.940   4.985   2.729
  713DIO    C2639908   3.902   4.880   2.626
  713DIO     H139909   5.622   5.179   2.641
  713DIO     H239910   5.581   4.755   2.524
  713DIO     H339911   5.404   4.804   2.740
  713DIO     H439912   5.153   4.824   2.761
  713DIO     H539913   5.153   5.169   2.493
  713DIO     H639914   4.544   4.970   2.855
  713DIO     H739915   4.533   5.333   2.608
  713DIO     H839916   4.376   5.236   2.857
  713DIO     H939917   4.339   4.930   2.656
  713DIO    H1039918   4.200   4.886   2.752
  713DIO    H1139919   4.141   4.985   2.525
  713DIO    H1239920   4.183   5.234   2.500
  713DIO    H1339921   4.331   5.138   2.504
  713DIO    H1439922   4.051   5.166   2.756
  713DIO    H1539923   3.974   5.151   2.599
  713DIO    H1639924   3.988   4.936   2.815
  713DIO    H1739925   3.848   5.031   2.768
  713DIO    H1839926   3.858   4.926   2.537
  713DIO    H1939927   3.988   4.820   2.595
  713DIO    H2039928   3.828   4.811   2.669
  714DIO     F139929   3.445   8.742   9.620
  714DIO     C139930   3.368   8.795   9.524
  714DIO     C239931   3.224   8.780   9.532
  714DIO     C339932   3.135   8.835   9.427
  714DIO     C439933   3.200   8.906   9.315
  714DIO     C539934   3.345   8.920   9.309
  714DIO     F239935   3.400   8.989   9.208
  714DIO     C639936   3.428   8.864   9.413
  714DIO     F339937   3.562   8.876   9.405
  714DIO     C739938   2.988   8.820   9.434
  714DIO     C839939   2.911   8.769   9.318
  714DIO     C939940   2.767   8.755   9.324
  714DIO    C1039941   2.694   8.801   9.441
  714DIO    C1139942   2.767   8.845   9.559
  714DIO    C1239943   2.911   8.856   9.554
  714DIO     F439944   2.976   8.902   9.663
  714DIO     O139945   2.562   8.762   9.450
  714DIO    C1339946   2.467   8.846   9.509
  714DIO     O239947   2.466   8.969   9.535
  714DIO    C1439948   2.338   8.779   9.530
  714DIO    C1539949   2.272   8.703   9.422
  714DIO     F539950   2.335   8.684   9.304
  714DIO    C1639951   2.141   8.642   9.438
  714DIO    C1739952   2.065   8.661   9.561
  714DIO    C1839953   2.134   8.721   9.675
  714DIO    C1939954   2.266   8.781   9.659
  714DIO     F639955   2.328   8.822   9.771
  714DIO    C2039956   1.925   8.608   9.575
  714DIO     O339957   1.855   8.595   9.451
  714DIO    C2139958   1.811   8.720   9.399
  714DIO    C2239959   1.722   8.793   9.500
  714DIO    C2339960   1.803   8.805   9.629
  714DIO     O439961   1.847   8.678   9.673
  714DIO    C2439962   1.590   8.719   9.527
  714DIO    C2539963   1.499   8.696   9.406
  714DIO    C2639964   1.460   8.824   9.333
  714DIO     H139965   3.181   8.728   9.618
  714DIO     H239966   3.140   8.957   9.241
  714DIO     H339967   2.963   8.736   9.229
  714DIO     H439968   2.712   8.709   9.243
  714DIO     H539969   2.712   8.874   9.648
  714DIO     H639970   2.103   8.580   9.358
  714DIO     H739971   2.091   8.718   9.774
  714DIO     H839972   1.934   8.505   9.613
  714DIO     H939973   1.898   8.782   9.373
  714DIO    H1039974   1.758   8.701   9.305
  714DIO    H1139975   1.700   8.893   9.462
  714DIO    H1239976   1.742   8.849   9.708
  714DIO    H1339977   1.889   8.872   9.615
  714DIO    H1439978   1.609   8.621   9.573
  714DIO    H1539979   1.533   8.776   9.602
  714DIO    H1639980   1.546   8.627   9.336
  714DIO    H1739981   1.407   8.647   9.441
  714DIO    H1839982   1.417   8.897   9.402
  714DIO    H1939983   1.547   8.870   9.285
  714DIO    H2039984   1.387   8.802   9.255
  715DIO     F139985   3.592   1.086   2.599
  715DIO     C139986   3.514   1.141   2.504
  715DIO     C239987   3.370   1.127   2.512
  715DIO     C339988   3.281   1.184   2.409
  715DIO     C439989   3.347   1.259   2.299
  715DIO     C539990   3.491   1.272   2.293
  715DIO     F239991   3.547   1.344   2.193
  715DIO     C639992   3.575   1.214   2.395
  715DIO     F339993   3.709   1.226   2.388
  715DIO     C739994   3.135   1.169   2.415
  715DIO     C839995   3.058   1.121   2.298
  715DIO     C939996   2.913   1.107   2.304
  715DIO    C1039997   2.841   1.150   2.422
  715DIO    C1139998   2.913   1.190   2.541
  715DIO    C1239999   3.057   1.202   2.536
  715DIO     F440000   3.122   1.245   2.646
  715DIO     O140001   2.708   1.111   2.429
  715DIO    C1340002   2.614   1.193   2.491
  715DIO     O240003   2.613   1.316   2.520
  715DIO    C1440004   2.485   1.126   2.509
  715DIO    C1540005   2.419   1.052   2.399
  715DIO     F540006   2.481   1.037   2.281
  715DIO    C1640007   2.288   0.991   2.414
  715DIO    C1740008   2.212   1.007   2.538
  715DIO    C1840009   2.281   1.064   2.653
  715DIO    C1940010   2.412   1.124   2.638
  715DIO     F640011   2.475   1.162   2.752
  715DIO    C2040012   2.071   0.953   2.550
  715DIO     O340013   2.002   0.944   2.426
  715DIO    C2140014   1.958   1.070   2.377
  715DIO    C2240015   1.869   1.140   2.480
  715DIO    C2340016   1.950   1.149   2.609
  715DIO     O440017   1.994   1.020   2.651
  715DIO    C2440018   1.736   1.066   2.506
  715DIO    C2540019   1.646   1.046   2.384
  715DIO    C2640020   1.607   1.176   2.314
  715DIO     H140021   3.328   1.072   2.596
  715DIO     H240022   3.286   1.311   2.226
  715DIO     H340023   3.109   1.090   2.208
  715DIO     H440024   2.858   1.063   2.221
  715DIO     H540025   2.859   1.217   2.630
  715DIO     H640026   2.250   0.931   2.332
  715DIO     H740027   2.238   1.058   2.752
  715DIO     H840028   2.081   0.850   2.586
  715DIO     H940029   2.045   1.133   2.353
  715DIO    H1040030   1.905   1.054   2.283
  715DIO    H1140031   1.846   1.242   2.445
  715DIO    H1240032   1.889   1.191   2.690
  715DIO    H1340033   2.036   1.216   2.597
  715DIO    H1440034   1.756   0.967   2.549
  715DIO    H1540035   1.680   1.121   2.582
  715DIO    H1640036   1.693   0.979   2.311
  715DIO    H1740037   1.554   0.996   2.417
  715DIO    H1840038   1.563   1.247   2.385
  715DIO    H1940039   1.694   1.223   2.267
  715DIO    H2040040   1.533   1.156   2.236
  716DIO     F140041   2.532   0.925   1.083
  716DIO     C140042   2.454   0.939   0.974
  716DIO     C240043   2.310   0.928   0.988
  716DIO     C340044   2.221   0.941   0.870
  716DIO     C440045   2.287   0.967   0.739
  716DIO     C540046   2.431   0.977   0.729
  716DIO     F240047   2.487   1.005   0.609
  716DIO     C640048   2.515   0.963   0.845
  716DIO     F340049   2.649   0.972   0.834
  716DIO     C740050   2.075   0.930   0.881
  716DIO     C840051   1.998   0.840   0.792
  716DIO     C940052   1.853   0.829   0.803
  716DIO    C1040053   1.781   0.914   0.895
  716DIO    C1140054   1.853   0.998   0.989
  716DIO    C1240055   1.997   1.007   0.980
  716DIO     F440056   2.062   1.090   1.065
  716DIO     O140057   1.648   0.882   0.917
  716DIO    C1340058   1.554   0.981   0.942
  716DIO     O240059   1.553   1.105   0.921
  716DIO    C1440060   1.425   0.927   0.985
  716DIO    C1540061   1.359   0.816   0.912
  716DIO     F540062   1.421   0.756   0.809
  716DIO    C1640063   1.228   0.765   0.950
  716DIO    C1740064   1.152   0.828   1.057
  716DIO    C1840065   1.221   0.925   1.141
  716DIO    C1940066   1.352   0.975   1.105
  716DIO     F640067   1.415   1.054   1.195
  716DIO    C2040068   1.011   0.784   1.090
  716DIO     O340069   0.942   0.726   0.979
  716DIO    C2140070   0.898   0.824   0.885
  716DIO    C2240071   0.809   0.928   0.952
  716DIO    C2340072   0.890   0.987   1.068
  716DIO     O440073   0.934   0.884   1.156
  716DIO    C2440074   0.676   0.870   1.005
  716DIO    C2540075   0.586   0.804   0.900
  716DIO    C2640076   0.547   0.897   0.786
  716DIO     H140077   2.268   0.911   1.086
  716DIO     H240078   2.226   0.987   0.652
  716DIO     H340079   2.049   0.777   0.721
  716DIO     H440080   1.798   0.757   0.744
  716DIO     H540081   1.799   1.058   1.061
  716DIO     H640082   1.190   0.678   0.898
  716DIO     H740083   1.178   0.958   1.235
  716DIO     H840084   1.021   0.702   1.163
  716DIO     H940085   0.985   0.872   0.838
  716DIO    H1040086   0.845   0.772   0.805
  716DIO    H1140087   0.786   1.008   0.881
  716DIO    H1240088   0.829   1.057   1.126
  716DIO    H1340089   0.976   1.044   1.031
  716DIO    H1440090   0.696   0.795   1.083
  716DIO    H1540091   0.620   0.950   1.054
  716DIO    H1640092   0.633   0.714   0.860
  716DIO    H1740093   0.494   0.771   0.950
  716DIO    H1840094   0.503   0.990   0.823
  716DIO    H1940095   0.634   0.922   0.724
  716DIO    H2040096   0.473   0.848   0.721
  717DIO     F140097   4.782   0.206   0.813
  717DIO     C140098   4.704   0.158   0.913
  717DIO     C240099   4.560   0.172   0.903
  717DIO     C340100   4.471   0.124   1.011
  717DIO     C440101   4.537   0.058   1.127
  717DIO     C540102   4.681   0.046   1.134
  717DIO     F240103   4.736  -0.018   1.239
  717DIO     C640104   4.765   0.095   1.027
  717DIO     F340105   4.899   0.083   1.035
  717DIO     C740106   4.325   0.138   1.004
  717DIO     C840107   4.248   0.196   1.116
  717DIO     C940108   4.103   0.209   1.109
  717DIO    C1040109   4.030   0.157   0.995
  717DIO    C1140110   4.103   0.106   0.880
  717DIO    C1240111   4.247   0.095   0.886
  717DIO     F440112   4.312   0.043   0.780
  717DIO     O140113   3.898   0.194   0.984
  717DIO    C1340114   3.804   0.108   0.930
  717DIO     O240115   3.803  -0.017   0.911
  717DIO    C1440116   3.675   0.173   0.906
  717DIO    C1540117   3.608   0.256   1.009
  717DIO     F540118   3.671   0.281   1.126
  717DIO    C1640119   3.478   0.315   0.990
  717DIO    C1740120   3.402   0.290   0.868
  717DIO    C1840121   3.471   0.223   0.758
  717DIO    C1940122   3.602   0.165   0.777
  717DIO     F640123   3.665   0.118   0.667
  717DIO    C2040124   3.261   0.342   0.851
  717DIO     O340125   3.191   0.362   0.974
  717DIO    C2140126   3.148   0.239   1.033
  717DIO    C2240127   3.059   0.161   0.937
  717DIO    C2340128   3.140   0.142   0.808
  717DIO     O440129   3.184   0.267   0.757
  717DIO    C2440130   2.926   0.234   0.905
  717DIO    C2540131   2.835   0.263   1.025
  717DIO    C2640132   2.797   0.139   1.104
  717DIO     H140133   4.517   0.219   0.815
  717DIO     H240134   4.476   0.012   1.204
  717DIO     H340135   4.299   0.234   1.203
  717DIO     H440136   4.048   0.259   1.188
  717DIO     H540137   4.049   0.072   0.793
  717DIO     H640138   3.439   0.382   1.066
  717DIO     H740139   3.428   0.221   0.659
  717DIO     H840140   3.271   0.442   0.807
  717DIO     H940141   3.234   0.179   1.062
  717DIO    H1040142   3.095   0.264   1.125
  717DIO    H1140143   3.036   0.063   0.979
  717DIO    H1240144   3.078   0.093   0.731
  717DIO    H1340145   3.226   0.076   0.826
  717DIO    H1440146   2.946   0.329   0.853
  717DIO    H1540147   2.870   0.172   0.833
  717DIO    H1640148   2.883   0.336   1.091
  717DIO    H1740149   2.744   0.310   0.987
  717DIO    H1840150   2.753   0.063   1.040
  717DIO    H1940151   2.883   0.096   1.156
  717DIO    H2040152   2.723   0.166   1.181
  718DIO     F140153   8.007   3.816   9.896
  718DIO     C140154   7.929   3.851   9.792
  718DIO     C240155   7.785   3.838   9.803
  718DIO     C340156   7.696   3.873   9.690
  718DIO     C440157   7.762   3.923   9.567
  718DIO     C540158   7.906   3.935   9.558
  718DIO     F240159   7.962   3.985   9.446
  718DIO     C640160   7.990   3.900   9.670
  718DIO     F340161   8.124   3.910   9.661
  718DIO     C740162   7.550   3.860   9.699
  718DIO     C840163   7.473   3.788   9.594
  718DIO     C940164   7.328   3.776   9.603
  718DIO    C1040165   7.256   3.842   9.710
  718DIO    C1140166   7.328   3.907   9.818
  718DIO    C1240167   7.472   3.917   9.810
  718DIO     F440168   7.537   3.982   9.909
  718DIO     O140169   7.123   3.806   9.725
  718DIO    C1340170   7.029   3.899   9.768
  718DIO     O240171   7.028   4.025   9.771
  718DIO    C1440172   6.900   3.837   9.800
  718DIO    C1540173   6.834   3.742   9.708
  718DIO     F540174   6.896   3.703   9.595
  718DIO    C1640175   6.703   3.685   9.735
  718DIO    C1740176   6.627   3.726   9.853
  718DIO    C1840177   6.696   3.806   9.953
  718DIO    C1940178   6.827   3.862   9.927
  718DIO     F640179   6.890   3.922  10.030
  718DIO    C2040180   6.486   3.677   9.876
  718DIO     O340181   6.417   3.642   9.756
  718DIO    C2140182   6.373   3.755   9.683
  718DIO    C2240183   6.284   3.845   9.768
  718DIO    C2340184   6.365   3.881   9.893
  718DIO     O440185   6.409   3.763   9.960
  718DIO    C2440186   6.151   3.777   9.809
  718DIO    C2540187   6.061   3.733   9.694
  718DIO    C2640188   6.022   3.846   9.599
  718DIO     H140189   7.743   3.803   9.896
  718DIO     H240190   7.701   3.959   9.484
  718DIO     H340191   7.524   3.740   9.513
  718DIO     H440192   7.273   3.716   9.531
  718DIO     H540193   7.274   3.951   9.900
  718DIO     H640194   6.665   3.610   9.667
  718DIO     H740195   6.653   3.821  10.052
  718DIO     H840196   6.496   3.583   9.932
  718DIO     H940197   6.460   3.811   9.646
  718DIO    H1040198   6.320   3.720   9.594
  718DIO    H1140199   6.261   3.937   9.714
  718DIO    H1240200   6.304   3.938   9.963
  718DIO    H1340201   6.451   3.943   9.867
  718DIO    H1440202   6.171   3.689   9.872
  718DIO    H1540203   6.095   3.847   9.872
  718DIO    H1640204   6.108   3.652   9.637
  718DIO    H1740205   5.969   3.691   9.737
  718DIO    H1840206   5.978   3.930   9.653
  718DIO    H1940207   6.109   3.882   9.543
  718DIO    H2040208   5.948   3.810   9.526
  719DIO     F140209   8.680   9.467   3.086
  719DIO     C140210   8.602   9.571   3.048
  719DIO     C240211   8.458   9.554   3.045
  719DIO     C340212   8.369   9.664   3.002
  719DIO     C440213   8.435   9.792   2.965
  719DIO     C540214   8.579   9.806   2.969
  719DIO     F240215   8.634   9.925   2.939
  719DIO     C640216   8.663   9.696   3.011
  719DIO     F340217   8.797   9.710   3.013
  719DIO     C740218   8.223   9.649   2.998
  719DIO     C840219   8.146   9.687   2.877
  719DIO     C940220   8.001   9.672   2.872
  719DIO    C1040221   7.928   9.630   2.990
  719DIO    C1140222   8.001   9.585   3.108
  719DIO    C1240223   8.145   9.597   3.112
  719DIO     F440224   8.210   9.560   3.224
  719DIO     O140225   7.796   9.595   2.972
  719DIO    C1340226   7.702   9.619   3.071
  719DIO     O240227   7.701   9.695   3.172
  719DIO    C1440228   7.573   9.556   3.043
  719DIO    C1540229   7.506   9.569   2.911
  719DIO     F540230   7.569   9.633   2.810
  719DIO    C1640231   7.376   9.513   2.883
  719DIO    C1740232   7.300   9.446   2.988
  719DIO    C1840233   7.369   9.416   3.113
  719DIO    C1940234   7.500   9.471   3.141
  719DIO     F640235   7.563   9.428   3.252
  719DIO    C2040236   7.159   9.396   2.964
  719DIO     O340237   7.089   9.469   2.862
  719DIO    C2140238   7.046   9.597   2.906
  719DIO    C2240239   6.957   9.585   3.029
  719DIO    C2340240   7.038   9.510   3.135
  719DIO     O440241   7.082   9.384   3.084
  719DIO    C2440242   6.824   9.511   3.001
  719DIO    C2540243   6.733   9.575   2.895
  719DIO    C2640244   6.695   9.719   2.925
  719DIO     H140245   8.415   9.459   3.075
  719DIO     H240246   8.374   9.879   2.943
  719DIO     H340247   8.197   9.721   2.788
  719DIO     H440248   7.946   9.692   2.781
  719DIO     H540249   7.947   9.548   3.194
  719DIO     H640250   7.337   9.519   2.782
  719DIO     H740251   7.326   9.348   3.186
  719DIO     H840252   7.169   9.294   2.925
  719DIO     H940253   7.132   9.661   2.927
  719DIO    H1040254   6.993   9.645   2.823
  719DIO    H1140255   6.934   9.686   3.067
  719DIO    H1240256   6.976   9.490   3.223
  719DIO    H1340257   7.124   9.569   3.168
  719DIO    H1440258   6.844   9.408   2.971
  719DIO    H1540259   6.768   9.506   3.095
  719DIO    H1640260   6.781   9.569   2.796
  719DIO    H1740261   6.642   9.515   2.888
  719DIO    H1840262   6.651   9.728   3.024
  719DIO    H1940263   6.781   9.785   2.918
  719DIO    H2040264   6.621   9.753   2.852
  720DIO     F140265   5.533   7.927   7.444
  720DIO     C140266   5.455   7.933   7.554
  720DIO     C240267   5.311   7.941   7.539
  720DIO     C340268   5.222   7.951   7.657
  720DIO     C440269   5.288   7.950   7.790
  720DIO     C540270   5.432   7.942   7.802
  720DIO     F240271   5.487   7.938   7.925
  720DIO     C640272   5.516   7.934   7.685
  720DIO     F340273   5.649   7.927   7.698
  720DIO     C740274   5.076   7.960   7.644
  720DIO     C840275   4.999   8.065   7.714
  720DIO     C940276   4.854   8.074   7.701
  720DIO    C1040277   4.781   7.972   7.627
  720DIO    C1140278   4.854   7.872   7.550
  720DIO    C1240279   4.998   7.865   7.561
  720DIO     F440280   5.063   7.768   7.494
  720DIO     O140281   4.649   8.000   7.599
  720DIO    C1340282   4.555   7.898   7.594
  720DIO     O240283   4.554   7.780   7.637
  720DIO    C1440284   4.426   7.943   7.541
  720DIO    C1540285   4.359   8.066   7.591
  720DIO     F540286   4.422   8.144   7.681
  720DIO    C1640287   4.228   8.108   7.545
  720DIO    C1740288   4.153   8.027   7.451
  720DIO    C1840289   4.221   7.915   7.387
  720DIO    C1940290   4.353   7.873   7.432
  720DIO     F640291   4.416   7.779   7.359
  720DIO    C2040292   4.012   8.064   7.411
  720DIO     O340293   3.942   8.141   7.509
  720DIO    C2140294   3.899   8.063   7.620
  720DIO    C2240295   3.810   7.948   7.573
  720DIO    C2340296   3.890   7.868   7.471
  720DIO     O440297   3.935   7.952   7.365
  720DIO    C2440298   3.677   7.995   7.510
  720DIO    C2540299   3.586   8.079   7.601
  720DIO    C2640300   3.548   8.010   7.731
  720DIO     H140301   5.268   7.940   7.439
  720DIO     H240302   5.227   7.947   7.880
  720DIO     H340303   5.050   8.140   7.772
  720DIO     H440304   4.799   8.155   7.746
  720DIO     H540305   4.799   7.800   7.491
  720DIO     H640306   4.190   8.204   7.580
  720DIO     H740307   4.179   7.865   7.301
  720DIO     H840308   4.022   8.130   7.324
  720DIO     H940309   3.985   8.025   7.675
  720DIO    H1040310   3.846   8.129   7.689
  720DIO    H1140311   3.787   7.883   7.658
  720DIO    H1240312   3.829   7.789   7.427
  720DIO    H1340313   3.977   7.820   7.518
  720DIO    H1440314   3.697   8.054   7.419
  720DIO    H1540315   3.620   7.907   7.478
  720DIO    H1640316   3.634   8.176   7.623
  720DIO    H1740317   3.494   8.103   7.545
  720DIO    H1840318   3.504   7.912   7.712
  720DIO    H1940319   3.634   7.997   7.796
  720DIO    H2040320   3.474   8.070   7.785
  721DIO     F140321   4.735   6.831   6.920
  721DIO     C140322   4.657   6.860   7.026
  721DIO     C240323   4.513   6.864   7.010
  721DIO     C340324   4.424   6.898   7.123
  721DIO     C440325   4.490   6.924   7.254
  721DIO     C540326   4.634   6.919   7.267
  721DIO     F240327   4.690   6.939   7.389
  721DIO     C640328   4.718   6.886   7.154
  721DIO     F340329   4.852   6.883   7.168
  721DIO     C740330   4.278   6.904   7.109
  721DIO     C840331   4.201   7.021   7.156
  721DIO     C940332   4.056   7.027   7.142
  721DIO    C1040333   3.984   6.913   7.090
  721DIO    C1140334   4.056   6.799   7.035
  721DIO    C1240335   4.200   6.794   7.047
  721DIO     F440336   4.265   6.686   7.001
  721DIO     O140337   3.851   6.934   7.057
  721DIO    C1340338   3.757   6.833   7.073
  721DIO     O240339   3.756   6.726   7.139
  721DIO    C1440340   3.628   6.867   7.012
  721DIO    C1540341   3.561   6.997   7.036
  721DIO     F540342   3.624   7.092   7.108
  721DIO    C1640343   3.431   7.029   6.982
  721DIO    C1740344   3.355   6.930   6.907
  721DIO    C1840345   3.424   6.808   6.867
  721DIO    C1940346   3.555   6.776   6.919
  721DIO     F640347   3.618   6.669   6.867
  721DIO    C2040348   3.214   6.958   6.860
  721DIO     O340349   3.144   7.054   6.940
  721DIO    C2140350   3.101   7.000   7.064
  721DIO    C2240351   3.012   6.878   7.042
  721DIO    C2340352   3.093   6.779   6.958
  721DIO     O440353   3.137   6.840   6.837
  721DIO    C2440354   2.879   6.912   6.971
  721DIO    C2540355   2.788   7.012   7.043
  721DIO    C2640356   2.750   6.971   7.184
  721DIO     H140357   4.471   6.843   6.913
  721DIO     H240358   4.429   6.939   7.342
  721DIO     H340359   4.252   7.107   7.198
  721DIO     H440360   4.001   7.116   7.169
  721DIO     H540361   4.002   6.717   6.992
  721DIO     H640362   3.393   7.130   6.997
  721DIO     H740363   3.381   6.741   6.793
  721DIO     H840364   3.224   7.006   6.761
  721DIO     H940365   3.187   6.974   7.126
  721DIO    H1040366   3.048   7.079   7.119
  721DIO    H1140367   2.989   6.831   7.139
  721DIO    H1240368   3.032   6.692   6.931
  721DIO    H1340369   3.179   6.741   7.014
  721DIO    H1440370   2.899   6.950   6.870
  721DIO    H1540371   2.823   6.818   6.957
  721DIO    H1640372   2.836   7.111   7.045
  721DIO    H1740373   2.697   7.024   6.984
  721DIO    H1840374   2.706   6.870   7.185
  721DIO    H1940375   2.837   6.971   7.251
  721DIO    H2040376   2.676   7.041   7.225
  722DIO     F140377   4.530   3.735   8.496
  722DIO     C140378   4.452   3.694   8.598
  722DIO     C240379   4.308   3.708   8.587
  722DIO     C340380   4.219   3.666   8.698
  722DIO     C440381   4.285   3.609   8.818
  722DIO     C540382   4.429   3.596   8.826
  722DIO     F240383   4.484   3.539   8.935
  722DIO     C640384   4.513   3.638   8.716
  722DIO     F340385   4.646   3.627   8.725
  722DIO     C740386   4.073   3.680   8.690
  722DIO     C840387   3.996   3.745   8.799
  722DIO     C940388   3.851   3.758   8.791
  722DIO    C1040389   3.778   3.698   8.680
  722DIO    C1140390   3.851   3.640   8.569
  722DIO    C1240391   3.995   3.630   8.575
  722DIO     F440392   4.060   3.571   8.473
  722DIO     O140393   3.646   3.735   8.667
  722DIO    C1340394   3.552   3.645   8.619
  722DIO     O240395   3.551   3.520   8.608
  722DIO    C1440396   3.423   3.709   8.590
  722DIO    C1540397   3.356   3.798   8.688
  722DIO     F540398   3.419   3.830   8.803
  722DIO    C1640399   3.225   3.856   8.665
  722DIO    C1740400   3.150   3.823   8.545
  722DIO    C1840401   3.218   3.749   8.439
  722DIO    C1940402   3.350   3.692   8.462
  722DIO     F640403   3.413   3.638   8.356
  722DIO    C2040404   3.009   3.873   8.524
  722DIO     O340405   2.939   3.901   8.646
  722DIO    C2140406   2.896   3.783   8.713
  722DIO    C2240407   2.807   3.699   8.622
  722DIO    C2340408   2.887   3.671   8.495
  722DIO     O440409   2.932   3.792   8.435
  722DIO    C2440410   2.674   3.769   8.585
  722DIO    C2540411   2.583   3.806   8.703
  722DIO    C2640412   2.545   3.688   8.791
  722DIO     H140413   4.265   3.749   8.497
  722DIO     H240414   4.224   3.567   8.898
  722DIO     H340415   4.047   3.788   8.883
  722DIO     H440416   3.796   3.813   8.866
  722DIO     H540417   3.796   3.601   8.484
  722DIO     H640418   3.187   3.928   8.737
  722DIO     H740419   3.176   3.740   8.340
  722DIO     H840420   3.019   3.971   8.474
  722DIO     H940421   2.982   3.725   8.746
  722DIO    H1040422   2.843   3.813   8.803
  722DIO    H1140423   2.784   3.604   8.671
  722DIO    H1240424   2.826   3.618   8.421
  722DIO    H1340425   2.974   3.607   8.517
  722DIO    H1440426   2.694   3.860   8.528
  722DIO    H1540427   2.617   3.703   8.518
  722DIO    H1640428   2.631   3.883   8.764
  722DIO    H1740429   2.491   3.851   8.663
  722DIO    H1840430   2.501   3.607   8.731
  722DIO    H1940431   2.631   3.648   8.844
  722DIO    H2040432   2.471   3.719   8.865
  723DIO     F140433   8.152   2.637   6.823
  723DIO     C140434   8.075   2.565   6.905
  723DIO     C240435   7.930   2.581   6.900
  723DIO     C340436   7.842   2.505   6.991
  723DIO     C440437   7.907   2.411   7.085
  723DIO     C540438   8.051   2.396   7.088
  723DIO     F240439   8.107   2.307   7.172
  723DIO     C640440   8.135   2.473   6.998
  723DIO     F340441   8.269   2.459   7.003
  723DIO     C740442   7.695   2.520   6.988
  723DIO     C840443   7.618   2.546   7.112
  723DIO     C940444   7.473   2.561   7.109
  723DIO    C1040445   7.401   2.541   6.985
  723DIO    C1140446   7.473   2.524   6.860
  723DIO    C1240447   7.617   2.511   6.863
  723DIO     F440448   7.682   2.490   6.746
  723DIO     O140449   7.269   2.580   6.984
  723DIO    C1340450   7.174   2.511   6.909
  723DIO     O240451   7.173   2.397   6.856
  723DIO    C1440452   7.045   2.581   6.903
  723DIO    C1540453   6.979   2.632   7.025
  723DIO     F540454   7.041   2.625   7.144
  723DIO    C1640455   6.848   2.695   7.022
  723DIO    C1740456   6.772   2.703   6.898
  723DIO    C1840457   6.841   2.669   6.774
  723DIO    C1940458   6.973   2.608   6.777
  723DIO     F640459   7.035   2.592   6.658
  723DIO    C2040460   6.631   2.758   6.896
  723DIO     O340461   6.562   2.744   7.020
  723DIO    C2140462   6.518   2.610   7.043
  723DIO    C2240463   6.429   2.561   6.929
  723DIO    C2340464   6.510   2.577   6.801
  723DIO     O440465   6.554   2.711   6.785
  723DIO    C2440466   6.296   2.639   6.918
  723DIO    C2540467   6.206   2.635   7.042
  723DIO    C2640468   6.167   2.495   7.085
  723DIO     H140469   7.888   2.650   6.828
  723DIO     H240470   7.847   2.345   7.146
  723DIO     H340471   7.670   2.558   7.206
  723DIO     H440472   7.418   2.587   7.198
  723DIO     H540473   7.419   2.515   6.767
  723DIO     H640474   6.810   2.738   7.114
  723DIO     H740475   6.798   2.694   6.678
  723DIO     H840476   6.641   2.866   6.881
  723DIO     H940477   6.605   2.545   7.055
  723DIO    H1040478   6.465   2.609   7.139
  723DIO    H1140479   6.407   2.455   6.944
  723DIO    H1240480   6.449   2.551   6.713
  723DIO    H1340481   6.596   2.509   6.800
  723DIO    H1440482   6.316   2.745   6.895
  723DIO    H1540483   6.240   2.599   6.833
  723DIO    H1640484   6.253   2.688   7.125
  723DIO    H1740485   6.114   2.691   7.019
  723DIO    H1840486   6.123   2.438   7.002
  723DIO    H1940487   6.254   2.439   7.123
  723DIO    H2040488   6.094   2.499   7.166
  724DIO     F140489   7.627   0.396   1.920
  724DIO     C140490   7.549   0.306   1.982
  724DIO     C240491   7.405   0.323   1.981
  724DIO     C340492   7.317   0.227   2.051
  724DIO     C440493   7.382   0.113   2.119
  724DIO     C540494   7.526   0.098   2.119
  724DIO     F240495   7.582  -0.009   2.178
  724DIO     C640496   7.610   0.194   2.050
  724DIO     F340497   7.744   0.180   2.052
  724DIO     C740498   7.170   0.243   2.052
  724DIO     C840499   7.093   0.237   2.178
  724DIO     C940500   6.948   0.252   2.179
  724DIO    C1040501   6.876   0.264   2.053
  724DIO    C1140502   6.948   0.277   1.928
  724DIO    C1240503   7.092   0.264   1.928
  724DIO     F440504   7.157   0.272   1.810
  724DIO     O140505   6.744   0.302   2.063
  724DIO    C1340506   6.649   0.253   1.973
  724DIO     O240507   6.648   0.155   1.894
  724DIO    C1440508   6.520   0.322   1.984
  724DIO    C1540509   6.454   0.342   2.115
  724DIO     F540510   6.516   0.306   2.229
  724DIO    C1640511   6.323   0.404   2.128
  724DIO    C1740512   6.247   0.442   2.009
  724DIO    C1840513   6.316   0.439   1.880
  724DIO    C1940514   6.447   0.379   1.868
  724DIO     F640515   6.510   0.392   1.749
  724DIO    C2040516   6.106   0.496   2.020
  724DIO     O340517   6.037   0.452   2.137
  724DIO    C2140518   5.993   0.317   2.127
  724DIO    C2240519   5.904   0.297   2.005
  724DIO    C2340520   5.985   0.343   1.884
  724DIO     O440521   6.029   0.477   1.901
  724DIO    C2440522   5.771   0.375   2.013
  724DIO    C2540523   5.681   0.341   2.132
  724DIO    C2640524   5.642   0.194   2.140
  724DIO     H140525   7.363   0.407   1.928
  724DIO     H240526   7.321   0.034   2.163
  724DIO     H340527   7.145   0.227   2.272
  724DIO     H440528   6.893   0.257   2.272
  724DIO     H540529   6.894   0.291   1.836
  724DIO     H640530   6.285   0.424   2.227
  724DIO     H740531   6.273   0.486   1.793
  724DIO     H840532   6.116   0.605   2.032
  724DIO     H940533   6.080   0.250   2.123
  724DIO    H1040534   5.940   0.292   2.220
  724DIO    H1140535   5.882   0.190   1.993
  724DIO    H1240536   5.924   0.339   1.793
  724DIO    H1340537   6.071   0.277   1.867
  724DIO    H1440538   5.791   0.483   2.016
  724DIO    H1540539   5.715   0.357   1.921
  724DIO    H1640540   5.728   0.372   2.226
  724DIO    H1740541   5.589   0.401   2.123
  724DIO    H1840542   5.598   0.160   2.046
  724DIO    H1940543   5.729   0.131   2.163
  724DIO    H2040544   5.569   0.179   2.219
  725DIO     F140545   9.062   7.606   5.978
  725DIO     C140546   8.985   7.624   6.087
  725DIO     C240547   8.841   7.630   6.071
  725DIO     C340548   8.752   7.651   6.188
  725DIO     C440549   8.817   7.663   6.320
  725DIO     C540550   8.962   7.657   6.333
  725DIO     F240551   9.017   7.664   6.456
  725DIO     C640552   9.045   7.636   6.217
  725DIO     F340553   9.179   7.632   6.231
  725DIO     C740554   8.605   7.659   6.174
  725DIO     C840555   8.528   7.770   6.233
  725DIO     C940556   8.384   7.778   6.220
  725DIO    C1040557   8.311   7.670   6.156
  725DIO    C1140558   8.384   7.562   6.090
  725DIO    C1240559   8.528   7.557   6.101
  725DIO     F440560   8.593   7.454   6.043
  725DIO     O140561   8.179   7.694   6.126
  725DIO    C1340562   8.084   7.592   6.130
  725DIO     O240563   8.083   7.479   6.185
  725DIO    C1440564   7.955   7.632   6.073
  725DIO    C1540565   7.889   7.759   6.112
  725DIO     F540566   7.952   7.846   6.194
  725DIO    C1640567   7.758   7.797   6.062
  725DIO    C1740568   7.682   7.707   5.976
  725DIO    C1840569   7.751   7.589   5.923
  725DIO    C1940570   7.883   7.552   5.972
  725DIO     F640571   7.945   7.451   5.908
  725DIO    C2040572   7.542   7.740   5.932
  725DIO     O340573   7.472   7.826   6.023
  725DIO    C2140574   7.428   7.759   6.140
  725DIO    C2240575   7.339   7.640   6.105
  725DIO    C2340576   7.420   7.551   6.011
  725DIO     O440577   7.464   7.624   5.897
  725DIO    C2440578   7.207   7.681   6.038
  725DIO    C2540579   7.116   7.774   6.120
  725DIO    C2640580   7.077   7.717   6.256
  725DIO     H140581   8.798   7.619   5.972
  725DIO     H240582   8.757   7.669   6.410
  725DIO     H340583   8.580   7.851   6.284
  725DIO     H440584   8.329   7.863   6.257
  725DIO     H540585   8.329   7.485   6.037
  725DIO     H640586   7.720   7.895   6.087
  725DIO     H740587   7.708   7.531   5.842
  725DIO     H840588   7.551   7.797   5.839
  725DIO     H940589   7.515   7.726   6.198
  725DIO    H1040590   7.375   7.831   6.203
  725DIO    H1140591   7.317   7.583   6.196
  725DIO    H1240592   7.359   7.468   5.975
  725DIO    H1340593   7.506   7.507   6.063
  725DIO    H1440594   7.226   7.730   5.942
  725DIO    H1540595   7.150   7.590   6.014
  725DIO    H1640596   7.163   7.872   6.133
  725DIO    H1740597   7.024   7.792   6.062
  725DIO    H1840598   7.034   7.617   6.246
  725DIO    H1940599   7.164   7.711   6.322
  725DIO    H2040600   7.004   7.782   6.304
  726DIO     F140601   9.941   1.378   8.255
  726DIO     C140602   9.864   1.460   8.329
  726DIO     C240603   9.720   1.455   8.313
  726DIO     C340604   9.631   1.544   8.390
  726DIO     C440605   9.696   1.636   8.486
  726DIO     C540606   9.841   1.639   8.500
  726DIO     F240607   9.896   1.722   8.592
  726DIO     C640608   9.924   1.551   8.423
  726DIO     F340609  10.058   1.556   8.436
  726DIO     C740610   9.484   1.541   8.375
  726DIO     C840611   9.407   1.665   8.351
  726DIO     C940612   9.263   1.663   8.337
  726DIO    C1040613   9.190   1.538   8.354
  726DIO    C1140614   9.263   1.413   8.370
  726DIO    C1240615   9.407   1.416   8.382
  726DIO     F440616   9.472   1.299   8.401
  726DIO     O140617   9.058   1.539   8.315
  726DIO    C1340618   8.963   1.462   8.383
  726DIO     O240619   8.962   1.408   8.496
  726DIO    C1440620   8.834   1.458   8.313
  726DIO    C1540621   8.768   1.580   8.264
  726DIO     F540622   8.831   1.699   8.273
  726DIO    C1640623   8.637   1.579   8.201
  726DIO    C1740624   8.561   1.454   8.190
  726DIO    C1840625   8.630   1.330   8.223
  726DIO    C1940626   8.762   1.332   8.284
  726DIO     F640627   8.824   1.213   8.298
  726DIO    C2040628   8.421   1.453   8.136
  726DIO     O340629   8.351   1.577   8.152
  726DIO    C2140630   8.307   1.598   8.286
  726DIO    C2240631   8.218   1.484   8.333
  726DIO    C2340632   8.299   1.355   8.315
  726DIO     O440633   8.343   1.341   8.181
  726DIO    C2440634   8.086   1.474   8.255
  726DIO    C2540635   7.995   1.597   8.261
  726DIO    C2640636   7.956   1.638   8.402
  726DIO     H140637   9.677   1.384   8.243
  726DIO     H240638   9.636   1.697   8.553
  726DIO     H340639   9.459   1.760   8.340
  726DIO     H440640   9.208   1.752   8.311
  726DIO     H540641   9.208   1.320   8.377
  726DIO     H640642   8.599   1.671   8.159
  726DIO     H740643   8.587   1.234   8.196
  726DIO     H840644   8.430   1.440   8.027
  726DIO     H940645   8.394   1.609   8.352
  726DIO    H1040646   8.254   1.694   8.289
  726DIO    H1140647   8.196   1.496   8.439
  726DIO    H1240648   8.238   1.267   8.339
  726DIO    H1340649   8.385   1.353   8.383
  726DIO    H1440650   8.105   1.452   8.149
  726DIO    H1540651   8.029   1.388   8.293
  726DIO    H1640652   8.042   1.681   8.210
  726DIO    H1740653   7.903   1.575   8.205
  726DIO    H1840654   7.913   1.554   8.457
  726DIO    H1940655   8.043   1.675   8.458
  726DIO    H2040656   7.883   1.719   8.399
  727DIO     F140657   2.242   5.290   4.542
  727DIO     C140658   2.164   5.192   4.592
  727DIO     C240659   2.020   5.209   4.593
  727DIO     C340660   1.932   5.105   4.649
  727DIO     C440661   1.997   4.982   4.701
  727DIO     C540662   2.141   4.968   4.698
  727DIO     F240663   2.197   4.853   4.743
  727DIO     C640664   2.225   5.072   4.644
  727DIO     F340665   2.359   5.058   4.643
  727DIO     C740666   1.785   5.120   4.652
  727DIO     C840667   1.708   5.098   4.776
  727DIO     C940668   1.563   5.113   4.779
  727DIO    C1040669   1.491   5.141   4.656
  727DIO    C1140670   1.563   5.171   4.534
  727DIO    C1240671   1.707   5.158   4.532
  727DIO     F440672   1.772   5.182   4.416
  727DIO     O140673   1.359   5.177   4.671
  727DIO    C1340674   1.264   5.141   4.575
  727DIO     O240675   1.263   5.054   4.484
  727DIO    C1440676   1.135   5.208   4.595
  727DIO    C1540677   1.069   5.210   4.728
  727DIO     F540678   1.131   5.159   4.836
  727DIO    C1640679   0.938   5.270   4.749
  727DIO    C1740680   0.862   5.323   4.636
  727DIO    C1840681   0.931   5.338   4.508
  727DIO    C1940682   1.062   5.280   4.488
  727DIO     F640683   1.125   5.309   4.372
  727DIO    C2040684   0.721   5.375   4.654
  727DIO     O340685   0.652   5.316   4.764
  727DIO    C2140686   0.608   5.183   4.736
  727DIO    C2240687   0.519   5.180   4.613
  727DIO    C2340688   0.600   5.242   4.499
  727DIO     O440689   0.644   5.373   4.534
  727DIO    C2440690   0.386   5.257   4.631
  727DIO    C2540691   0.296   5.207   4.744
  727DIO    C2640692   0.257   5.060   4.732
  727DIO     H140693   1.978   5.300   4.552
  727DIO     H240694   1.936   4.899   4.734
  727DIO     H340695   1.760   5.075   4.868
  727DIO     H440696   1.508   5.104   4.871
  727DIO     H540697   1.509   5.197   4.444
  727DIO     H640698   0.900   5.276   4.850
  727DIO     H740699   0.888   5.396   4.428
  727DIO     H840700   0.731   5.481   4.681
  727DIO     H940701   0.695   5.118   4.723
  727DIO    H1040702   0.555   5.146   4.825
  727DIO    H1140703   0.497   5.076   4.587
  727DIO    H1240704   0.539   5.251   4.408
  727DIO    H1340705   0.686   5.179   4.473
  727DIO    H1440706   0.406   5.363   4.648
  727DIO    H1540707   0.330   5.251   4.537
  727DIO    H1640708   0.343   5.225   4.841
  727DIO    H1740709   0.204   5.267   4.744
  727DIO    H1840710   0.213   5.039   4.634
  727DIO    H1940711   0.344   4.995   4.747
  727DIO    H2040712   0.184   5.035   4.809
  728DIO     F140713   6.171   5.639   1.203
  728DIO     C140714   6.094   5.711   1.287
  728DIO     C240715   5.950   5.708   1.270
  728DIO     C340716   5.861   5.787   1.358
  728DIO     C440717   5.926   5.867   1.464
  728DIO     C540718   6.071   5.868   1.479
  728DIO     F240719   6.126   5.939   1.579
  728DIO     C640720   6.154   5.790   1.391
  728DIO     F340721   6.288   5.793   1.405
  728DIO     C740722   5.715   5.786   1.342
  728DIO     C840723   5.637   5.912   1.334
  728DIO     C940724   5.493   5.912   1.319
  728DIO    C1040725   5.420   5.786   1.321
  728DIO    C1140726   5.493   5.660   1.321
  728DIO    C1240727   5.637   5.661   1.334
  728DIO     F440728   5.702   5.543   1.339
  728DIO     O140729   5.288   5.791   1.282
  728DIO    C1340730   5.193   5.707   1.340
  728DIO     O240731   5.193   5.639   1.446
  728DIO    C1440732   5.064   5.711   1.270
  728DIO    C1540733   4.998   5.839   1.236
  728DIO     F540734   5.061   5.956   1.260
  728DIO    C1640735   4.867   5.845   1.174
  728DIO    C1740736   4.791   5.723   1.148
  728DIO    C1840737   4.860   5.595   1.165
  728DIO    C1940738   4.992   5.589   1.226
  728DIO     F640739   5.054   5.470   1.225
  728DIO    C2040740   4.651   5.728   1.094
  728DIO     O340741   4.581   5.849   1.125
  728DIO    C2140742   4.537   5.854   1.260
  728DIO    C2240743   4.448   5.734   1.293
  728DIO    C2340744   4.529   5.609   1.260
  728DIO     O440745   4.573   5.611   1.125
  728DIO    C2440746   4.316   5.734   1.214
  728DIO    C2540747   4.225   5.855   1.236
  728DIO    C2640748   4.187   5.879   1.381
  728DIO     H140749   5.907   5.646   1.191
  728DIO     H240750   5.866   5.919   1.537
  728DIO     H340751   5.689   6.007   1.334
  728DIO     H440752   5.438   6.004   1.305
  728DIO     H540753   5.438   5.567   1.317
  728DIO     H640754   4.829   5.941   1.143
  728DIO     H740755   4.817   5.503   1.127
  728DIO     H840756   4.660   5.728   0.984
  728DIO     H940757   4.624   5.857   1.327
  728DIO    H1040758   4.485   5.948   1.275
  728DIO    H1140759   4.426   5.734   1.400
  728DIO    H1240760   4.468   5.519   1.273
  728DIO    H1340761   4.615   5.599   1.327
  728DIO    H1440762   4.336   5.725   1.107
  728DIO    H1540763   4.259   5.644   1.242
  728DIO    H1640764   4.272   5.946   1.195
  728DIO    H1740765   4.133   5.840   1.177
  728DIO    H1840766   4.143   5.789   1.425
  728DIO    H1940767   4.273   5.909   1.441
  728DIO    H2040768   4.113   5.960   1.387
  729DIO     F140769   9.955   4.683   1.172
  729DIO     C140770   9.877   4.752   1.086
  729DIO     C240771   9.733   4.736   1.092
  729DIO     C340772   9.644   4.808   0.998
  729DIO     C440773   9.710   4.898   0.900
  729DIO     C540774   9.854   4.912   0.896
  729DIO     F240775   9.910   4.998   0.809
  729DIO     C640776   9.938   4.840   0.989
  729DIO     F340777  10.072   4.853   0.984
  729DIO     C740778   9.498   4.792   1.002
  729DIO     C840779   9.421   4.762   0.879
  729DIO     C940780   9.276   4.747   0.883
  729DIO    C1040781   9.204   4.772   1.006
  729DIO    C1140782   9.276   4.795   1.130
  729DIO    C1240783   9.420   4.807   1.127
  729DIO     F440784   9.485   4.834   1.242
  729DIO     O140785   9.071   4.733   1.008
  729DIO    C1340786   8.977   4.805   1.080
  729DIO     O240787   8.976   4.922   1.127
  729DIO    C1440788   8.848   4.736   1.089
  729DIO    C1540789   8.781   4.679   0.970
  729DIO     F540790   8.844   4.681   0.850
  729DIO    C1640791   8.651   4.616   0.975
  729DIO    C1740792   8.575   4.613   1.100
  729DIO    C1840793   8.644   4.653   1.222
  729DIO    C1940794   8.775   4.714   1.216
  729DIO     F640795   8.838   4.735   1.334
  729DIO    C2040796   8.434   4.559   1.105
  729DIO     O340797   8.364   4.568   0.980
  729DIO    C2140798   8.321   4.700   0.950
  729DIO    C2240799   8.232   4.754   1.062
  729DIO    C2340800   8.313   4.744   1.191
  729DIO     O440801   8.357   4.611   1.213
  729DIO    C2440802   8.099   4.676   1.077
  729DIO    C2540803   8.008   4.675   0.953
  729DIO    C2640804   7.970   4.814   0.904
  729DIO     H140805   9.691   4.670   1.167
  729DIO     H240806   9.649   4.960   0.836
  729DIO     H340807   9.472   4.745   0.786
  729DIO     H440808   9.221   4.716   0.795
  729DIO     H540809   9.222   4.808   1.222
  729DIO     H640810   8.613   4.569   0.885
  729DIO     H740811   8.601   4.633   1.319
  729DIO     H840812   8.444   4.451   1.124
  729DIO     H940813   8.407   4.765   0.935
  729DIO    H1040814   8.268   4.697   0.855
  729DIO    H1140815   8.209   4.859   1.043
  729DIO    H1240816   8.252   4.774   1.277
  729DIO    H1340817   8.399   4.812   1.189
  729DIO    H1440818   8.119   4.572   1.105
  729DIO    H1540819   8.043   4.720   1.160
  729DIO    H1640820   8.056   4.619   0.872
  729DIO    H1740821   7.917   4.620   0.979
  729DIO    H1840822   7.926   4.874   0.984
  729DIO    H1940823   8.057   4.867   0.863
  729DIO    H2040824   7.896   4.805   0.823
  730DIO     F140825   5.301   0.317   2.061
  730DIO     C140826   5.224   0.290   1.955
  730DIO     C240827   5.079   0.285   1.971
  730DIO     C340828   4.991   0.254   1.857
  730DIO     C440829   5.056   0.230   1.726
  730DIO     C540830   5.200   0.235   1.713
  730DIO     F240831   5.256   0.217   1.591
  730DIO     C640832   5.284   0.266   1.826
  730DIO     F340833   5.418   0.269   1.812
  730DIO     C740834   4.844   0.247   1.872
  730DIO     C840835   4.767   0.131   1.822
  730DIO     C940836   4.622   0.125   1.836
  730DIO    C1040837   4.550   0.238   1.890
  730DIO    C1140838   4.622   0.351   1.947
  730DIO    C1240839   4.766   0.356   1.935
  730DIO     F440840   4.831   0.464   1.983
  730DIO     O140841   4.418   0.216   1.923
  730DIO    C1340842   4.323   0.318   1.909
  730DIO     O240843   4.322   0.425   1.844
  730DIO    C1440844   4.194   0.283   1.969
  730DIO    C1540845   4.128   0.153   1.943
  730DIO     F540846   4.190   0.059   1.869
  730DIO    C1640847   3.997   0.120   1.996
  730DIO    C1740848   3.921   0.218   2.073
  730DIO    C1840849   3.990   0.339   2.115
  730DIO    C1940850   4.122   0.372   2.063
  730DIO     F640851   4.184   0.479   2.117
  730DIO    C2040852   3.780   0.189   2.120
  730DIO     O340853   3.711   0.094   2.038
  730DIO    C2140854   3.667   0.151   1.914
  730DIO    C2240855   3.578   0.272   1.938
  730DIO    C2340856   3.659   0.370   2.024
  730DIO     O440857   3.703   0.307   2.144
  730DIO    C2440858   3.445   0.237   2.009
  730DIO    C2540859   3.355   0.138   1.936
  730DIO    C2640860   3.316   0.182   1.795
  730DIO     H140861   5.037   0.306   2.069
  730DIO     H240862   4.996   0.216   1.637
  730DIO     H340863   4.819   0.046   1.780
  730DIO     H440864   4.567   0.036   1.808
  730DIO     H540865   4.568   0.433   1.992
  730DIO     H640866   3.959   0.020   1.980
  730DIO     H740867   3.947   0.405   2.190
  730DIO     H840868   3.790   0.140   2.218
  730DIO     H940869   3.754   0.178   1.853
  730DIO    H1040870   3.614   0.073   1.859
  730DIO    H1140871   3.556   0.320   1.843
  730DIO    H1240872   3.598   0.456   2.052
  730DIO    H1340873   3.745   0.409   1.968
  730DIO    H1440874   3.465   0.197   2.109
  730DIO    H1540875   3.389   0.330   2.024
  730DIO    H1640876   3.402   0.039   1.932
  730DIO    H1740877   3.263   0.125   1.995
  730DIO    H1840878   3.272   0.282   1.796
  730DIO    H1940879   3.403   0.182   1.728
  730DIO    H2040880   3.243   0.112   1.753
  731DIO     F140881   4.400   8.662   4.667
  731DIO     C140882   4.322   8.749   4.735
  731DIO     C240883   4.178   8.742   4.719
  731DIO     C340884   4.089   8.838   4.790
  731DIO     C440885   4.155   8.937   4.878
  731DIO     C540886   4.299   8.941   4.892
  731DIO     F240887   4.355   9.030   4.977
  731DIO     C640888   4.383   8.847   4.821
  731DIO     F340889   4.517   8.853   4.834
  731DIO     C740890   3.943   8.834   4.774
  731DIO     C840891   3.866   8.956   4.742
  731DIO     C940892   3.721   8.952   4.727
  731DIO    C1040893   3.649   8.829   4.754
  731DIO    C1140894   3.721   8.706   4.778
  731DIO    C1240895   3.865   8.709   4.791
  731DIO     F440896   3.930   8.594   4.819
  731DIO     O140897   3.516   8.827   4.715
  731DIO    C1340898   3.422   8.755   4.788
  731DIO     O240899   3.421   8.710   4.905
  731DIO    C1440900   3.293   8.745   4.719
  731DIO    C1540901   3.226   8.864   4.660
  731DIO     F540902   3.289   8.984   4.661
  731DIO    C1640903   3.096   8.858   4.598
  731DIO    C1740904   3.020   8.733   4.597
  731DIO    C1840905   3.089   8.612   4.638
  731DIO    C1940906   3.220   8.618   4.699
  731DIO     F640907   3.283   8.500   4.722
  731DIO    C2040908   2.879   8.728   4.542
  731DIO     O340909   2.809   8.853   4.549
  731DIO    C2140910   2.766   8.884   4.681
  731DIO    C2240911   2.677   8.773   4.737
  731DIO    C2340912   2.758   8.643   4.729
  731DIO     O440913   2.802   8.620   4.595
  731DIO    C2440914   2.544   8.757   4.659
  731DIO    C2540915   2.453   8.881   4.656
  731DIO    C2640916   2.415   8.932   4.794
  731DIO     H140917   4.136   8.667   4.654
  731DIO     H240918   4.094   9.002   4.940
  731DIO     H340919   3.917   9.049   4.723
  731DIO     H440920   3.666   9.039   4.695
  731DIO     H540921   3.667   8.613   4.793
  731DIO     H640922   3.058   8.947   4.549
  731DIO     H740923   3.046   8.514   4.619
  731DIO     H840924   2.889   8.706   4.435
  731DIO     H940925   2.852   8.900   4.746
  731DIO    H1040926   2.713   8.979   4.677
  731DIO    H1140927   2.654   8.794   4.842
  731DIO    H1240928   2.697   8.558   4.759
  731DIO    H1340929   2.844   8.647   4.797
  731DIO    H1440930   2.564   8.727   4.556
  731DIO    H1540931   2.488   8.674   4.704
  731DIO    H1640932   2.501   8.961   4.599
  731DIO    H1740933   2.362   8.854   4.602
  731DIO    H1840934   2.371   8.853   4.855
  731DIO    H1940935   2.502   8.973   4.847
  731DIO    H2040936   2.341   9.013   4.785
  732DIO     F140937   7.031   8.360   2.698
  732DIO     C140938   6.953   8.352   2.588
  732DIO     C240939   6.809   8.345   2.603
  732DIO     C340940   6.720   8.334   2.485
  732DIO     C440941   6.786   8.333   2.352
  732DIO     C540942   6.930   8.341   2.340
  732DIO     F240943   6.985   8.344   2.217
  732DIO     C640944   7.014   8.351   2.457
  732DIO     F340945   7.148   8.357   2.444
  732DIO     C740946   6.574   8.325   2.498
  732DIO     C840947   6.497   8.219   2.429
  732DIO     C940948   6.352   8.211   2.442
  732DIO    C1040949   6.279   8.312   2.515
  732DIO    C1140950   6.352   8.413   2.591
  732DIO    C1240951   6.496   8.420   2.580
  732DIO     F440952   6.561   8.518   2.646
  732DIO     O140953   6.147   8.285   2.543
  732DIO    C1340954   6.053   8.387   2.548
  732DIO     O240955   6.052   8.505   2.503
  732DIO    C1440956   5.924   8.342   2.601
  732DIO    C1540957   5.857   8.220   2.552
  732DIO     F540958   5.920   8.140   2.462
  732DIO    C1640959   5.727   8.177   2.598
  732DIO    C1740960   5.651   8.260   2.691
  732DIO    C1840961   5.720   8.372   2.754
  732DIO    C1940962   5.851   8.413   2.709
  732DIO     F640963   5.914   8.509   2.781
  732DIO    C2040964   5.510   8.223   2.732
  732DIO     O340965   5.440   8.145   2.634
  732DIO    C2140966   5.397   8.222   2.523
  732DIO    C2240967   5.308   8.337   2.568
  732DIO    C2340968   5.389   8.418   2.670
  732DIO     O440969   5.433   8.335   2.777
  732DIO    C2440970   5.175   8.290   2.632
  732DIO    C2540971   5.084   8.206   2.542
  732DIO    C2640972   5.046   8.274   2.412
  732DIO     H140973   6.766   8.347   2.703
  732DIO     H240974   6.725   8.335   2.262
  732DIO     H340975   6.548   8.143   2.372
  732DIO     H440976   6.297   8.128   2.398
  732DIO     H540977   6.298   8.486   2.650
  732DIO     H640978   5.688   8.082   2.564
  732DIO     H740979   5.677   8.423   2.840
  732DIO     H840980   5.520   8.157   2.820
  732DIO     H940981   5.483   8.260   2.468
  732DIO    H1040982   5.344   8.155   2.455
  732DIO    H1140983   5.285   8.402   2.483
  732DIO    H1240984   5.327   8.498   2.713
  732DIO    H1340985   5.475   8.466   2.622
  732DIO    H1440986   5.195   8.233   2.723
  732DIO    H1540987   5.119   8.379   2.663
  732DIO    H1640988   5.132   8.109   2.520
  732DIO    H1740989   4.993   8.183   2.598
  732DIO    H1840990   5.002   8.372   2.430
  732DIO    H1940991   5.132   8.286   2.346
  732DIO    H2040992   4.972   8.213   2.358
  733DIO     F140993   5.084   4.483   9.368
  733DIO     C140994   5.006   4.554   9.283
  733DIO     C240995   4.862   4.538   9.288
  733DIO     C340996   4.773   4.611   9.196
  733DIO     C440997   4.839   4.702   9.099
  733DIO     C540998   4.983   4.716   9.095
  733DIO     F240999   5.039   4.804   9.009
  733DIO     C641000   5.067   4.643   9.187
  733DIO     F341001   5.201   4.656   9.182
  733DIO     C741002   4.627   4.595   9.199
  733DIO     C841003   4.550   4.567   9.076
  733DIO     C941004   4.405   4.552   9.079
  733DIO    C1041005   4.333   4.575   9.203
  733DIO    C1141006   4.405   4.596   9.327
  733DIO    C1241007   4.549   4.608   9.324
  733DIO     F441008   4.614   4.633   9.439
  733DIO     O141009   4.200   4.536   9.204
  733DIO    C1341010   4.106   4.607   9.278
  733DIO     O241011   4.105   4.723   9.327
  733DIO    C1441012   3.977   4.537   9.285
  733DIO    C1541013   3.911   4.483   9.165
  733DIO     F541014   3.973   4.487   9.046
  733DIO    C1641015   3.780   4.420   9.170
  733DIO    C1741016   3.704   4.415   9.294
  733DIO    C1841017   3.773   4.453   9.417
  733DIO    C1941018   3.904   4.514   9.412
  733DIO     F641019   3.967   4.534   9.531
  733DIO    C2041020   3.563   4.360   9.298
  733DIO     O341021   3.494   4.371   9.174
  733DIO    C2141022   3.450   4.504   9.146
  733DIO    C2241023   3.361   4.556   9.259
  733DIO    C2341024   3.442   4.544   9.388
  733DIO     O441025   3.486   4.411   9.408
  733DIO    C2441026   3.228   4.478   9.272
  733DIO    C2541027   3.138   4.479   9.149
  733DIO    C2641028   3.099   4.618   9.101
  733DIO     H141029   4.820   4.471   9.362
  733DIO     H241030   4.778   4.766   9.035
  733DIO     H341031   4.601   4.551   8.982
  733DIO     H441032   4.350   4.522   8.991
  733DIO     H541033   4.351   4.608   9.420
  733DIO     H641034   3.742   4.374   9.079
  733DIO     H741035   3.730   4.431   9.514
  733DIO     H841036   3.573   4.253   9.316
  733DIO     H941037   3.537   4.569   9.132
  733DIO    H1041038   3.397   4.503   9.051
  733DIO    H1141039   3.338   4.662   9.241
  733DIO    H1241040   3.381   4.573   9.474
  733DIO    H1341041   3.528   4.612   9.386
  733DIO    H1441042   3.248   4.374   9.299
  733DIO    H1541043   3.172   4.521   9.356
  733DIO    H1641044   3.185   4.424   9.066
  733DIO    H1741045   3.046   4.424   9.173
  733DIO    H1841046   3.055   4.677   9.182
  733DIO    H1941047   3.186   4.672   9.062
  733DIO    H2041048   3.025   4.611   9.020
  734DIO     F141049   6.330   5.013   6.574
  734DIO     C141050   6.253   4.960   6.670
  734DIO     C241051   6.108   4.975   6.662
  734DIO     C341052   6.020   4.921   6.767
  734DIO     C441053   6.085   4.849   6.879
  734DIO     C541054   6.229   4.836   6.885
  734DIO     F241055   6.285   4.767   6.987
  734DIO     C641056   6.313   4.891   6.781
  734DIO     F341057   6.447   4.879   6.789
  734DIO     C741058   5.873   4.935   6.760
  734DIO     C841059   5.796   4.987   6.876
  734DIO     C941060   5.651   5.001   6.870
  734DIO    C1041061   5.579   4.955   6.753
  734DIO    C1141062   5.651   4.910   6.635
  734DIO    C1241063   5.795   4.899   6.640
  734DIO     F441064   5.860   4.852   6.532
  734DIO     O141065   5.447   4.993   6.744
  734DIO    C1341066   5.352   4.909   6.685
  734DIO     O241067   5.351   4.786   6.660
  734DIO    C1441068   5.223   4.976   6.665
  734DIO    C1541069   5.157   5.052   6.772
  734DIO     F541070   5.219   5.071   6.890
  734DIO    C1641071   5.026   5.113   6.756
  734DIO    C1741072   4.950   5.094   6.633
  734DIO    C1841073   5.019   5.033   6.519
  734DIO    C1941074   5.151   4.974   6.535
  734DIO     F641075   5.213   4.932   6.423
  734DIO    C2041076   4.809   5.147   6.618
  734DIO     O341077   4.740   5.160   6.743
  734DIO    C2141078   4.696   5.035   6.795
  734DIO    C2241079   4.607   4.962   6.694
  734DIO    C2341080   4.688   4.949   6.565
  734DIO     O441081   4.732   5.077   6.520
  734DIO    C2441082   4.474   5.036   6.666
  734DIO    C2541083   4.384   5.059   6.788
  734DIO    C2641084   4.345   4.932   6.861
  734DIO     H141085   6.066   5.026   6.576
  734DIO     H241086   6.025   4.799   6.954
  734DIO     H341087   5.848   5.020   6.965
  734DIO     H441088   5.596   5.047   6.951
  734DIO     H541089   5.597   4.881   6.546
  734DIO     H641090   4.988   5.176   6.836
  734DIO     H741091   4.976   5.036   6.420
  734DIO     H841092   4.819   5.249   6.580
  734DIO     H941093   4.783   4.974   6.821
  734DIO    H1041094   4.643   5.055   6.888
  734DIO    H1141095   4.585   4.862   6.732
  734DIO    H1241096   4.627   4.905   6.486
  734DIO    H1341097   4.774   4.883   6.580
  734DIO    H1441098   4.494   5.134   6.620
  734DIO    H1541099   4.418   4.978   6.592
  734DIO    H1641100   4.431   5.129   6.858
  734DIO    H1741101   4.292   5.108   6.753
  734DIO    H1841102   4.301   4.858   6.793
  734DIO    H1941103   4.432   4.886   6.910
  734DIO    H2041104   4.272   4.954   6.939
  735DIO     F141105   7.765   6.454   8.772
  735DIO     C141106   7.688   6.373   8.847
  735DIO     C241107   7.543   6.389   8.843
  735DIO     C341108   7.455   6.303   8.925
  735DIO     C441109   7.520   6.199   9.008
  735DIO     C541110   7.664   6.185   9.009
  735DIO     F241111   7.720   6.086   9.083
  735DIO     C641112   7.748   6.271   8.929
  735DIO     F341113   7.882   6.257   8.932
  735DIO     C741114   7.308   6.319   8.923
  735DIO     C841115   7.231   6.331   9.049
  735DIO     C941116   7.086   6.346   9.048
  735DIO    C1041117   7.014   6.340   8.923
  735DIO    C1141118   7.086   6.337   8.797
  735DIO    C1241119   7.230   6.324   8.798
  735DIO     F441120   7.295   6.316   8.680
  735DIO     O141121   6.882   6.379   8.927
  735DIO    C1341122   6.787   6.319   8.844
  735DIO     O241123   6.786   6.211   8.779
  735DIO    C1441124   6.658   6.389   8.846
  735DIO    C1541125   6.592   6.426   8.973
  735DIO     F541126   6.654   6.406   9.091
  735DIO    C1641127   6.461   6.489   8.977
  735DIO    C1741128   6.385   6.511   8.855
  735DIO    C1841129   6.454   6.491   8.728
  735DIO    C1941130   6.586   6.429   8.724
  735DIO     F641131   6.648   6.427   8.604
  735DIO    C2041132   6.244   6.566   8.858
  735DIO     O341133   6.175   6.538   8.980
  735DIO    C2141134   6.131   6.403   8.989
  735DIO    C2241135   6.042   6.366   8.870
  735DIO    C2341136   6.123   6.396   8.744
  735DIO     O441137   6.167   6.532   8.743
  735DIO    C2441138   5.909   6.445   8.867
  735DIO    C2541139   5.819   6.428   8.990
  735DIO    C2641140   5.780   6.283   9.017
  735DIO     H141141   7.501   6.466   8.779
  735DIO     H241142   7.460   6.128   9.062
  735DIO     H341143   7.283   6.333   9.144
  735DIO     H441144   7.031   6.363   9.140
  735DIO     H541145   7.032   6.338   8.703
  735DIO     H641146   6.423   6.522   9.073
  735DIO     H741147   6.411   6.526   8.635
  735DIO     H841148   6.254   6.675   8.855
  735DIO     H941149   6.218   6.336   8.993
  735DIO    H1041150   6.078   6.390   9.083
  735DIO    H1141151   6.020   6.259   8.873
  735DIO    H1241152   6.062   6.381   8.654
  735DIO    H1341153   6.209   6.329   8.736
  735DIO    H1441154   5.929   6.553   8.856
  735DIO    H1541155   5.853   6.415   8.778
  735DIO    H1641156   5.866   6.470   9.079
  735DIO    H1741157   5.727   6.485   8.973
  735DIO    H1841158   5.736   6.236   8.929
  735DIO    H1941159   5.867   6.224   9.049
  735DIO    H2041160   5.707   6.279   9.098
  736DIO     F141161   2.236   3.312   0.998
  736DIO     C141162   2.158   3.206   0.969
  736DIO     C241163   2.014   3.218   0.981
  736DIO     C341164   1.925   3.103   0.952
  736DIO     C441165   1.991   2.977   0.909
  736DIO     C541166   2.135   2.968   0.898
  736DIO     F241167   2.190   2.853   0.854
  736DIO     C641168   2.219   3.082   0.927
  736DIO     F341169   2.352   3.071   0.917
  736DIO     C741170   1.779   3.112   0.965
  736DIO     C841171   1.702   3.012   1.042
  736DIO     C941172   1.557   3.021   1.054
  736DIO    C1041173   1.484   3.124   0.982
  736DIO    C1141174   1.557   3.229   0.912
  736DIO    C1241175   1.701   3.221   0.902
  736DIO     F441176   1.766   3.316   0.832
  736DIO     O141177   1.352   3.142   1.017
  736DIO    C1341178   1.258   3.179   0.922
  736DIO     O241179   1.257   3.176   0.796
  736DIO    C1441180   1.129   3.215   0.982
  736DIO    C1541181   1.062   3.128   1.082
  736DIO     F541182   1.125   3.017   1.128
  736DIO    C1641183   0.931   3.158   1.137
  736DIO    C1741184   0.856   3.273   1.090
  736DIO    C1841185   0.924   3.370   1.005
  736DIO    C1941186   1.056   3.340   0.951
  736DIO     F641187   1.119   3.440   0.885
  736DIO    C2041188   0.715   3.300   1.138
  736DIO     O341189   0.645   3.182   1.180
  736DIO    C2141190   0.602   3.102   1.070
  736DIO    C2241191   0.513   3.183   0.976
  736DIO    C2341192   0.593   3.305   0.934
  736DIO     O441193   0.638   3.379   1.047
  736DIO    C2441194   0.380   3.227   1.042
  736DIO    C2541195   0.289   3.114   1.092
  736DIO    C2641196   0.251   3.014   0.985
  736DIO     H141197   1.971   3.312   1.011
  736DIO     H241198   1.930   2.893   0.877
  736DIO     H341199   1.753   2.933   1.095
  736DIO     H441200   1.502   2.953   1.118
  736DIO     H541201   1.502   3.308   0.863
  736DIO     H641202   0.893   3.095   1.217
  736DIO     H741203   0.882   3.467   0.985
  736DIO     H841204   0.725   3.361   1.229
  736DIO     H941205   0.688   3.062   1.017
  736DIO    H1041206   0.549   3.015   1.111
  736DIO    H1141207   0.490   3.123   0.887
  736DIO    H1241208   0.532   3.372   0.872
  736DIO    H1341209   0.680   3.276   0.872
  736DIO    H1441210   0.400   3.295   1.126
  736DIO    H1541211   0.323   3.286   0.968
  736DIO    H1641212   0.337   3.062   1.176
  736DIO    H1741213   0.197   3.159   1.132
  736DIO    H1841214   0.207   3.063   0.898
  736DIO    H1941215   0.337   2.955   0.952
  736DIO    H2041216   0.177   2.943   1.024
  737DIO     F141217   3.606   6.531   4.204
  737DIO     C141218   3.528   6.428   4.244
  737DIO     C241219   3.384   6.445   4.247
  737DIO     C341220   3.295   6.336   4.292
  737DIO     C441221   3.361   6.209   4.332
  737DIO     C541222   3.505   6.195   4.329
  737DIO     F241223   3.560   6.077   4.362
  737DIO     C641224   3.589   6.304   4.284
  737DIO     F341225   3.722   6.290   4.283
  737DIO     C741226   3.149   6.351   4.297
  737DIO     C841227   3.072   6.317   4.418
  737DIO     C941228   2.927   6.331   4.423
  737DIO    C1041229   2.854   6.371   4.303
  737DIO    C1141230   2.927   6.413   4.185
  737DIO    C1241231   3.071   6.400   4.181
  737DIO     F441232   3.136   6.435   4.068
  737DIO     O141233   2.722   6.406   4.321
  737DIO    C1341234   2.628   6.379   4.222
  737DIO     O241235   2.627   6.301   4.124
  737DIO    C1441236   2.499   6.444   4.249
  737DIO    C1541237   2.432   6.433   4.381
  737DIO     F541238   2.495   6.372   4.484
  737DIO    C1641239   2.301   6.490   4.408
  737DIO    C1741240   2.226   6.555   4.301
  737DIO    C1841241   2.294   6.581   4.175
  737DIO    C1941242   2.426   6.525   4.149
  737DIO     F641243   2.489   6.566   4.037
  737DIO    C2041244   2.085   6.605   4.324
  737DIO     O341245   2.015   6.535   4.428
  737DIO    C2141246   1.972   6.406   4.387
  737DIO    C2241247   1.883   6.414   4.264
  737DIO    C2341248   1.963   6.487   4.156
  737DIO     O441249   2.008   6.614   4.204
  737DIO    C2441250   1.750   6.489   4.290
  737DIO    C2541251   1.659   6.428   4.397
  737DIO    C2641252   1.621   6.284   4.371
  737DIO     H141253   3.341   6.539   4.214
  737DIO     H241254   3.300   6.123   4.357
  737DIO     H341255   3.123   6.285   4.508
  737DIO     H441256   2.872   6.314   4.514
  737DIO     H541257   2.872   6.447   4.098
  737DIO     H641258   2.263   6.487   4.509
  737DIO     H741259   2.252   6.647   4.101
  737DIO     H841260   2.095   6.708   4.360
  737DIO     H941261   2.058   6.342   4.368
  737DIO    H1041262   1.919   6.360   4.472
  737DIO    H1141263   1.860   6.313   4.228
  737DIO    H1241264   1.902   6.504   4.067
  737DIO    H1341265   2.050   6.427   4.125
  737DIO    H1441266   1.770   6.593   4.317
  737DIO    H1541267   1.693   6.492   4.195
  737DIO    H1641268   1.707   6.437   4.496
  737DIO    H1741269   1.567   6.488   4.402
  737DIO    H1841270   1.577   6.272   4.272
  737DIO    H1941271   1.707   6.217   4.379
  737DIO    H2041272   1.547   6.251   4.445
  738DIO     F141273   5.096   2.610   1.261
  738DIO     C141274   5.018   2.589   1.369
  738DIO     C241275   4.874   2.600   1.356
  738DIO     C341276   4.786   2.581   1.473
  738DIO     C441277   4.851   2.548   1.602
  738DIO     C541278   4.995   2.537   1.612
  738DIO     F241279   5.051   2.503   1.730
  738DIO     C641280   5.079   2.557   1.496
  738DIO     F341281   5.213   2.548   1.507
  738DIO     C741282   4.639   2.593   1.463
  738DIO     C841283   4.562   2.678   1.556
  738DIO     C941284   4.417   2.689   1.546
  738DIO    C1041285   4.345   2.609   1.449
  738DIO    C1141286   4.417   2.531   1.351
  738DIO    C1241287   4.561   2.521   1.359
  738DIO     F441288   4.626   2.444   1.270
  738DIO     O141289   4.213   2.643   1.429
  738DIO    C1341290   4.118   2.545   1.399
  738DIO     O241291   4.117   2.420   1.413
  738DIO    C1441292   3.989   2.602   1.359
  738DIO    C1541293   3.923   2.708   1.438
  738DIO     F541294   3.985   2.762   1.544
  738DIO    C1641295   3.792   2.761   1.403
  738DIO    C1741296   3.716   2.705   1.292
  738DIO    C1841297   3.785   2.612   1.203
  738DIO    C1941298   3.916   2.561   1.237
  738DIO     F641299   3.979   2.487   1.142
  738DIO    C2041300   3.575   2.751   1.262
  738DIO     O341301   3.506   2.802   1.376
  738DIO    C2141302   3.462   2.699   1.465
  738DIO    C2241303   3.373   2.598   1.392
  738DIO    C2341304   3.454   2.546   1.273
  738DIO     O441305   3.498   2.654   1.190
  738DIO    C2441306   3.240   2.660   1.342
  738DIO    C2541307   3.150   2.719   1.450
  738DIO    C2641308   3.111   2.620   1.559
  738DIO     H141309   4.832   2.623   1.259
  738DIO     H241310   4.790   2.523   1.688
  738DIO     H341311   4.614   2.737   1.631
  738DIO     H441312   4.362   2.758   1.609
  738DIO     H541313   4.363   2.476   1.276
  738DIO     H641314   3.754   2.845   1.460
  738DIO     H741315   3.742   2.584   1.108
  738DIO     H841316   3.585   2.836   1.194
  738DIO     H941317   3.549   2.648   1.508
  738DIO    H1041318   3.409   2.746   1.548
  738DIO    H1141319   3.351   2.515   1.458
  738DIO    H1241320   3.393   2.480   1.211
  738DIO    H1341321   3.540   2.488   1.307
  738DIO    H1441322   3.260   2.739   1.268
  738DIO    H1541323   3.184   2.582   1.289
  738DIO    H1641324   3.197   2.807   1.496
  738DIO    H1741325   3.058   2.756   1.402
  738DIO    H1841326   3.067   2.530   1.517
  738DIO    H1941327   3.198   2.592   1.620
  738DIO    H2041328   3.038   2.666   1.627
  739DIO     F141329   7.433   3.091   4.705
  739DIO     C141330   7.355   3.136   4.805
  739DIO     C241331   7.211   3.138   4.788
  739DIO     C341332   7.122   3.188   4.895
  739DIO     C441333   7.188   3.234   5.020
  739DIO     C541334   7.332   3.231   5.034
  739DIO     F241335   7.388   3.270   5.151
  739DIO     C641336   7.416   3.182   4.928
  739DIO     F341337   7.550   3.181   4.942
  739DIO     C741338   6.976   3.192   4.880
  739DIO     C841339   6.899   3.315   4.909
  739DIO     C941340   6.754   3.319   4.894
  739DIO    C1041341   6.682   3.198   4.860
  739DIO    C1141342   6.754   3.077   4.823
  739DIO    C1241343   6.898   3.075   4.836
  739DIO     F441344   6.963   2.960   4.807
  739DIO     O141345   6.549   3.214   4.824
  739DIO    C1341346   6.455   3.116   4.855
  739DIO     O241347   6.454   3.021   4.937
  739DIO    C1441348   6.326   3.140   4.790
  739DIO    C1541349   6.259   3.273   4.794
  739DIO     F541350   6.322   3.378   4.850
  739DIO    C1641351   6.129   3.296   4.736
  739DIO    C1741352   6.053   3.187   4.676
  739DIO    C1841353   6.122   3.060   4.656
  739DIO    C1941354   6.253   3.037   4.712
  739DIO     F641355   6.316   2.922   4.677
  739DIO    C2041356   5.912   3.208   4.625
  739DIO     O341357   5.842   3.315   4.690
  739DIO    C2141358   5.799   3.280   4.821
  739DIO    C2241359   5.710   3.156   4.818
  739DIO    C2341360   5.791   3.046   4.750
  739DIO     O441361   5.835   3.087   4.621
  739DIO    C2441362   5.577   3.179   4.743
  739DIO    C2541363   5.486   3.289   4.798
  739DIO    C2641364   5.448   3.270   4.944
  739DIO     H141365   7.169   3.101   4.696
  739DIO     H241366   7.127   3.263   5.105
  739DIO     H341367   6.950   3.406   4.936
  739DIO     H441368   6.699   3.411   4.907
  739DIO     H541369   6.700   2.989   4.793
  739DIO     H641370   6.091   3.398   4.734
  739DIO     H741371   6.079   2.983   4.593
  739DIO     H841372   5.922   3.239   4.521
  739DIO     H941373   5.885   3.264   4.886
  739DIO    H1041374   5.746   3.366   4.863
  739DIO    H1141375   5.687   3.125   4.921
  739DIO    H1241376   5.730   2.956   4.737
  739DIO    H1341377   5.877   3.017   4.812
  739DIO    H1441378   5.597   3.201   4.637
  739DIO    H1541379   5.521   3.084   4.743
  739DIO    H1641380   5.534   3.387   4.785
  739DIO    H1741381   5.395   3.291   4.738
  739DIO    H1841382   5.404   3.171   4.960
  739DIO    H1941383   5.535   3.281   5.010
  739DIO    H2041384   5.374   3.345   4.973
  740DIO     F141385   5.114   7.803   3.028
  740DIO     C141386   5.037   7.820   3.137
  740DIO     C241387   4.893   7.826   3.121
  740DIO     C341388   4.804   7.847   3.238
  740DIO     C441389   4.869   7.858   3.370
  740DIO     C541390   5.014   7.852   3.383
  740DIO     F241391   5.069   7.858   3.506
  740DIO     C641392   5.097   7.832   3.267
  740DIO     F341393   5.231   7.827   3.281
  740DIO     C741394   4.658   7.855   3.224
  740DIO     C841395   4.580   7.966   3.284
  740DIO     C941396   4.436   7.973   3.271
  740DIO    C1041397   4.363   7.865   3.206
  740DIO    C1141398   4.436   7.759   3.139
  740DIO    C1241399   4.580   7.753   3.150
  740DIO     F441400   4.645   7.650   3.092
  740DIO     O141401   4.231   7.890   3.176
  740DIO    C1341402   4.136   7.788   3.180
  740DIO     O241403   4.136   7.675   3.234
  740DIO    C1441404   4.007   7.829   3.123
  740DIO    C1541405   3.941   7.955   3.162
  740DIO     F541406   4.004   8.042   3.245
  740DIO    C1641407   3.810   7.993   3.112
  740DIO    C1741408   3.734   7.904   3.026
  740DIO    C1841409   3.803   7.787   2.973
  740DIO    C1941410   3.935   7.749   3.022
  740DIO     F641411   3.997   7.648   2.957
  740DIO    C2041412   3.594   7.937   2.983
  740DIO     O341413   3.524   8.023   3.073
  740DIO    C2141414   3.480   7.955   3.191
  740DIO    C2241415   3.391   7.836   3.155
  740DIO    C2341416   3.472   7.748   3.060
  740DIO     O441417   3.516   7.822   2.947
  740DIO    C2441418   3.259   7.878   3.088
  740DIO    C2541419   3.168   7.970   3.171
  740DIO    C2641420   3.130   7.913   3.306
  740DIO     H141421   4.850   7.816   3.022
  740DIO     H241422   4.809   7.863   3.460
  740DIO     H341423   4.632   8.046   3.335
  740DIO     H441424   4.381   8.059   3.308
  740DIO     H541425   4.381   7.682   3.086
  740DIO     H641426   3.772   8.092   3.138
  740DIO     H741427   3.760   7.729   2.892
  740DIO     H841428   3.603   7.995   2.890
  740DIO     H941429   3.567   7.922   3.249
  740DIO    H1041430   3.428   8.027   3.254
  740DIO    H1141431   3.369   7.779   3.246
  740DIO    H1241432   3.411   7.664   3.024
  740DIO    H1341433   3.558   7.703   3.112
  740DIO    H1441434   3.279   7.927   2.992
  740DIO    H1541435   3.202   7.787   3.064
  740DIO    H1641436   3.215   8.068   3.184
  740DIO    H1741437   3.076   7.988   3.113
  740DIO    H1841438   3.086   7.813   3.296
  740DIO    H1941439   3.216   7.906   3.373
  740DIO    H2041440   3.056   7.977   3.355
  741DIO     F141441   6.451   1.155   9.458
  741DIO     C141442   6.374   1.146   9.348
  741DIO     C241443   6.229   1.138   9.363
  741DIO     C341444   6.141   1.125   9.246
  741DIO     C441445   6.206   1.123   9.113
  741DIO     C541446   6.350   1.130   9.100
  741DIO     F241447   6.406   1.132   8.977
  741DIO     C641448   6.434   1.142   9.217
  741DIO     F341449   6.568   1.148   9.204
  741DIO     C741450   5.994   1.117   9.259
  741DIO     C841451   5.917   1.010   9.192
  741DIO     C941452   5.772   1.002   9.204
  741DIO    C1041453   5.700   1.105   9.276
  741DIO    C1141454   5.772   1.207   9.350
  741DIO    C1241455   5.916   1.213   9.339
  741DIO     F441456   5.981   1.312   9.404
  741DIO     O141457   5.568   1.078   9.304
  741DIO    C1341458   5.473   1.180   9.307
  741DIO     O241459   5.472   1.297   9.260
  741DIO    C1441460   5.344   1.136   9.361
  741DIO    C1541461   5.278   1.013   9.314
  741DIO     F541462   5.340   0.932   9.226
  741DIO    C1641463   5.147   0.971   9.361
  741DIO    C1741464   5.071   1.055   9.453
  741DIO    C1841465   5.140   1.168   9.514
  741DIO    C1941466   5.272   1.209   9.468
  741DIO     F641467   5.334   1.305   9.539
  741DIO    C2041468   4.930   1.019   9.494
  741DIO     O341469   4.861   0.939   9.398
  741DIO    C2141470   4.817   1.015   9.286
  741DIO    C2241471   4.728   1.131   9.329
  741DIO    C2341472   4.809   1.213   9.429
  741DIO     O441473   4.853   1.131   9.537
  741DIO    C2441474   4.595   1.085   9.393
  741DIO    C2541475   4.505   0.998   9.305
  741DIO    C2641476   4.466   1.064   9.173
  741DIO     H141477   6.187   1.142   9.463
  741DIO     H241478   6.146   1.123   9.023
  741DIO     H341479   5.969   0.933   9.136
  741DIO     H441480   5.717   0.919   9.162
  741DIO     H541481   5.718   1.280   9.407
  741DIO     H641482   5.109   0.875   9.329
  741DIO     H741483   5.097   1.221   9.599
  741DIO     H841484   4.940   0.955   9.583
  741DIO     H941485   4.904   1.051   9.230
  741DIO    H1041486   4.764   0.947   9.218
  741DIO    H1141487   4.706   1.194   9.242
  741DIO    H1241488   4.748   1.293   9.471
  741DIO    H1341489   4.895   1.260   9.381
  741DIO    H1441490   4.615   1.029   9.485
  741DIO    H1541491   4.539   1.174   9.423
  741DIO    H1641492   4.552   0.902   9.285
  741DIO    H1741493   4.413   0.976   9.361
  741DIO    H1841494   4.422   1.163   9.190
  741DIO    H1941495   4.553   1.075   9.107
  741DIO    H2041496   4.393   1.003   9.121
  742DIO     F141497   9.692   1.313   1.053
  742DIO     C141498   9.614   1.251   1.144
  742DIO     C241499   9.470   1.266   1.137
  742DIO     C341500   9.382   1.202   1.236
  742DIO     C441501   9.447   1.121   1.341
  742DIO     C541502   9.591   1.107   1.346
  742DIO     F241503   9.647   1.028   1.441
  742DIO     C641504   9.675   1.171   1.248
  742DIO     F341505   9.809   1.159   1.255
  742DIO     C741506   9.235   1.217   1.231
  742DIO     C841507   9.158   1.258   1.351
  742DIO     C941508   9.013   1.272   1.346
  742DIO    C1041509   8.941   1.237   1.226
  742DIO    C1141510   9.013   1.205   1.104
  742DIO    C1241511   9.157   1.193   1.108
  742DIO     F441512   9.222   1.157   0.996
  742DIO     O141513   8.809   1.276   1.221
  742DIO    C1341514   8.714   1.199   1.154
  742DIO     O241515   8.713   1.078   1.117
  742DIO    C1441516   8.585   1.267   1.140
  742DIO    C1541517   8.519   1.333   1.254
  742DIO     F541518   8.581   1.340   1.374
  742DIO    C1641519   8.388   1.395   1.244
  742DIO    C1741520   8.312   1.388   1.119
  742DIO    C1841521   8.381   1.338   1.001
  742DIO    C1941522   8.512   1.277   1.011
  742DIO     F641523   8.575   1.247   0.895
  742DIO    C2041524   8.171   1.442   1.110
  742DIO     O341525   8.102   1.443   1.235
  742DIO    C2141526   8.058   1.314   1.275
  742DIO    C2241527   7.969   1.251   1.168
  742DIO    C2341528   8.050   1.250   1.039
  742DIO     O441529   8.094   1.381   1.006
  742DIO    C2441530   7.836   1.327   1.147
  742DIO    C2541531   7.746   1.338   1.270
  742DIO    C2641532   7.707   1.204   1.331
  742DIO     H141533   9.428   1.326   1.057
  742DIO     H241534   9.386   1.063   1.411
  742DIO     H341535   9.210   1.283   1.443
  742DIO     H441536   8.958   1.310   1.431
  742DIO     H541537   8.959   1.184   1.013
  742DIO     H641538   8.350   1.450   1.329
  742DIO     H741539   8.338   1.350   0.902
  742DIO     H841540   8.181   1.547   1.082
  742DIO     H941541   8.145   1.250   1.295
  742DIO    H1041542   8.005   1.324   1.370
  742DIO    H1141543   7.947   1.147   1.196
  742DIO    H1241544   7.989   1.214   0.955
  742DIO    H1341545   8.136   1.182   1.047
  742DIO    H1441546   7.856   1.428   1.111
  742DIO    H1541547   7.780   1.276   1.068
  742DIO    H1641548   7.793   1.401   1.347
  742DIO    H1741549   7.654   1.390   1.241
  742DIO    H1841550   7.663   1.138   1.256
  742DIO    H1941551   7.794   1.154   1.375
  742DIO    H2041552   7.634   1.219   1.411
  743DIO     F141553   4.557   7.819   5.522
  743DIO     C141554   4.480   7.709   5.513
  743DIO     C241555   4.335   7.723   5.522
  743DIO     C341556   4.247   7.605   5.515
  743DIO     C441557   4.312   7.473   5.494
  743DIO     C541558   4.456   7.462   5.485
  743DIO     F241559   4.512   7.342   5.462
  743DIO     C641560   4.540   7.579   5.493
  743DIO     F341561   4.674   7.568   5.485
  743DIO     C741562   4.100   7.616   5.526
  743DIO     C841563   4.023   7.531   5.619
  743DIO     C941564   3.878   7.543   5.629
  743DIO    C1041565   3.806   7.631   5.540
  743DIO    C1141566   3.878   7.721   5.453
  743DIO    C1241567   4.022   7.712   5.444
  743DIO     F441568   4.087   7.793   5.358
  743DIO     O141569   3.674   7.654   5.572
  743DIO    C1341570   3.579   7.675   5.472
  743DIO     O241571   3.578   7.649   5.348
  743DIO    C1441572   3.450   7.720   5.524
  743DIO    C1541573   3.384   7.652   5.638
  743DIO     F541574   3.446   7.552   5.702
  743DIO    C1641575   3.253   7.692   5.687
  743DIO    C1741576   3.177   7.797   5.620
  743DIO    C1841577   3.246   7.877   5.519
  743DIO    C1941578   3.378   7.838   5.471
  743DIO     F641579   3.440   7.925   5.389
  743DIO    C2041580   3.036   7.831   5.663
  743DIO     O341581   2.967   7.722   5.725
  743DIO    C2141582   2.923   7.625   5.631
  743DIO    C2241583   2.834   7.688   5.524
  743DIO    C2341584   2.915   7.801   5.460
  743DIO     O441585   2.959   7.893   5.560
  743DIO    C2441586   2.701   7.743   5.580
  743DIO    C2541587   2.611   7.641   5.650
  743DIO    C2641588   2.572   7.523   5.562
  743DIO     H141589   4.293   7.822   5.536
  743DIO     H241590   4.252   7.385   5.478
  743DIO     H341591   4.075   7.463   5.685
  743DIO     H441592   3.823   7.486   5.704
  743DIO     H541593   3.824   7.791   5.390
  743DIO     H641594   3.215   7.643   5.776
  743DIO     H741595   3.203   7.969   5.482
  743DIO     H841596   3.046   7.907   5.741
  743DIO     H941597   3.010   7.576   5.585
  743DIO    H1041598   2.870   7.547   5.686
  743DIO    H1141599   2.812   7.613   5.447
  743DIO    H1241600   2.854   7.856   5.388
  743DIO    H1341601   3.001   7.761   5.405
  743DIO    H1441602   2.721   7.824   5.651
  743DIO    H1541603   2.645   7.788   5.498
  743DIO    H1641604   2.658   7.604   5.742
  743DIO    H1741605   2.519   7.692   5.681
  743DIO    H1841606   2.528   7.556   5.468
  743DIO    H1941607   2.659   7.460   5.540
  743DIO    H2041608   2.499   7.460   5.614
  744DIO     F141609   8.613   4.746   7.773
  744DIO     C141610   8.536   4.830   7.844
  744DIO     C241611   8.392   4.825   7.828
  744DIO     C341612   8.303   4.917   7.903
  744DIO     C441613   8.368   5.012   7.995
  744DIO     C541614   8.513   5.016   8.009
  744DIO     F241615   8.568   5.101   8.098
  744DIO     C641616   8.596   4.925   7.935
  744DIO     F341617   8.730   4.930   7.948
  744DIO     C741618   8.156   4.914   7.887
  744DIO     C841619   8.079   5.037   7.860
  744DIO     C941620   7.935   5.034   7.845
  744DIO    C1041621   7.862   4.910   7.866
  744DIO    C1141622   7.934   4.786   7.886
  744DIO    C1241623   8.079   4.789   7.898
  744DIO     F441624   8.143   4.673   7.922
  744DIO     O141625   7.730   4.909   7.827
  744DIO    C1341626   7.635   4.835   7.897
  744DIO     O241627   7.634   4.785   8.013
  744DIO    C1441628   7.506   4.828   7.828
  744DIO    C1541629   7.440   4.949   7.775
  744DIO     F541630   7.502   5.068   7.780
  744DIO    C1641631   7.309   4.945   7.712
  744DIO    C1741632   7.233   4.821   7.706
  744DIO    C1841633   7.302   4.697   7.742
  744DIO    C1941634   7.434   4.701   7.803
  744DIO     F641635   7.496   4.583   7.821
  744DIO    C2041636   7.093   4.817   7.651
  744DIO     O341637   7.023   4.942   7.663
  744DIO    C2141638   6.979   4.967   7.796
  744DIO    C2241639   6.890   4.855   7.847
  744DIO    C2341640   6.971   4.725   7.834
  744DIO     O441641   7.015   4.707   7.700
  744DIO    C2441642   6.757   4.842   7.769
  744DIO    C2541643   6.667   4.965   7.771
  744DIO    C2641644   6.628   5.011   7.911
  744DIO     H141645   8.349   4.752   7.760
  744DIO     H241646   8.308   5.075   8.060
  744DIO     H341647   8.131   5.131   7.845
  744DIO     H441648   7.879   5.122   7.816
  744DIO     H541649   7.880   4.693   7.897
  744DIO     H641650   7.271   5.036   7.667
  744DIO     H741651   7.259   4.601   7.719
  744DIO     H841652   7.102   4.800   7.543
  744DIO     H941653   7.066   4.981   7.862
  744DIO    H1041654   6.926   5.063   7.796
  744DIO    H1141655   6.868   4.871   7.953
  744DIO    H1241656   6.910   4.639   7.861
  744DIO    H1341657   7.057   4.726   7.902
  744DIO    H1441658   6.777   4.816   7.664
  744DIO    H1541659   6.701   4.757   7.811
  744DIO    H1641660   6.714   5.048   7.717
  744DIO    H1741661   6.575   4.942   7.716
  744DIO    H1841662   6.584   4.929   7.969
  744DIO    H1941663   6.715   5.050   7.966
  744DIO    H2041664   6.555   5.092   7.905
  745DIO     F141665   6.681   8.954   0.811
  745DIO     C141666   6.603   8.882   0.895
  745DIO     C241667   6.459   8.898   0.889
  745DIO     C341668   6.370   8.823   0.981
  745DIO     C441669   6.436   8.730   1.076
  745DIO     C541670   6.580   8.716   1.080
  745DIO     F241671   6.636   8.627   1.164
  745DIO     C641672   6.664   8.791   0.989
  745DIO     F341673   6.798   8.778   0.994
  745DIO     C741674   6.224   8.839   0.978
  745DIO     C841675   6.147   8.866   1.101
  745DIO     C941676   6.002   8.880   1.098
  745DIO    C1041677   5.930   8.859   0.974
  745DIO    C1141678   6.002   8.840   0.850
  745DIO    C1241679   6.146   8.828   0.853
  745DIO     F441680   6.211   8.805   0.737
  745DIO     O141681   5.797   8.898   0.974
  745DIO    C1341682   5.703   8.829   0.899
  745DIO     O241683   5.702   8.714   0.848
  745DIO    C1441684   5.574   8.898   0.892
  745DIO    C1541685   5.508   8.951   1.014
  745DIO     F541686   5.570   8.945   1.133
  745DIO    C1641687   5.377   9.014   1.010
  745DIO    C1741688   5.301   9.021   0.886
  745DIO    C1841689   5.370   8.985   0.762
  745DIO    C1941690   5.501   8.923   0.766
  745DIO     F641691   5.564   8.906   0.647
  745DIO    C2041692   5.160   9.075   0.883
  745DIO     O341693   5.091   9.063   1.007
  745DIO    C2141694   5.047   8.929   1.032
  745DIO    C2241695   4.958   8.879   0.919
  745DIO    C2341696   5.039   8.893   0.790
  745DIO     O441697   5.083   9.027   0.772
  745DIO    C2441698   4.825   8.957   0.907
  745DIO    C2541699   4.735   8.954   1.030
  745DIO    C2641700   4.696   8.814   1.075
  745DIO     H141701   6.417   8.966   0.817
  745DIO     H241702   6.375   8.665   1.139
  745DIO     H341703   6.198   8.879   1.195
  745DIO     H441704   5.947   8.908   1.187
  745DIO     H541705   5.948   8.830   0.757
  745DIO     H641706   5.339   9.058   1.101
  745DIO     H741707   5.327   9.008   0.666
  745DIO     H841708   5.170   9.183   0.866
  745DIO     H941709   5.134   8.864   1.045
  745DIO    H1041710   4.994   8.929   1.128
  745DIO    H1141711   4.935   8.773   0.935
  745DIO    H1241712   4.978   8.866   0.703
  745DIO    H1341713   5.125   8.825   0.790
  745DIO    H1441714   4.845   9.062   0.882
  745DIO    H1541715   4.769   8.916   0.822
  745DIO    H1641716   4.782   9.008   1.113
  745DIO    H1741717   4.643   9.010   1.007
  745DIO    H1841718   4.652   8.757   0.993
  745DIO    H1941719   4.783   8.759   1.114
  745DIO    H2041720   4.622   8.820   1.156
  746DIO     F141721   9.955   7.517   3.293
  746DIO     C141722   9.877   7.626   3.285
  746DIO     C241723   9.733   7.611   3.278
  746DIO     C341724   9.644   7.729   3.267
  746DIO     C441725   9.710   7.862   3.267
  746DIO     C541726   9.854   7.874   3.275
  746DIO     F241727   9.910   7.997   3.279
  746DIO     C641728   9.938   7.757   3.284
  746DIO     F341729  10.072   7.770   3.291
  746DIO     C741730   9.498   7.716   3.258
  746DIO     C841731   9.421   7.785   3.153
  746DIO     C941732   9.276   7.773   3.144
  746DIO    C1041733   9.204   7.699   3.246
  746DIO    C1141734   9.276   7.623   3.347
  746DIO    C1241735   9.420   7.634   3.353
  746DIO     F441736   9.485   7.567   3.451
  746DIO     O141737   9.071   7.671   3.219
  746DIO    C1341738   8.977   7.666   3.321
  746DIO     O241739   8.976   7.711   3.438
  746DIO    C1441740   8.848   7.613   3.276
  746DIO    C1541741   8.781   7.663   3.153
  746DIO     F541742   8.844   7.753   3.074
  746DIO    C1641743   8.651   7.617   3.110
  746DIO    C1741744   8.575   7.523   3.193
  746DIO    C1841745   8.644   7.460   3.305
  746DIO    C1941746   8.775   7.505   3.346
  746DIO     F641747   8.838   7.432   3.441
  746DIO    C2041748   8.434   7.482   3.156
  746DIO     O341749   8.364   7.580   3.078
  746DIO    C2141750   8.321   7.691   3.156
  746DIO    C2241751   8.232   7.646   3.271
  746DIO    C2341752   8.313   7.544   3.351
  746DIO     O441753   8.357   7.437   3.267
  746DIO    C2441754   8.099   7.582   3.224
  746DIO    C2541755   8.008   7.673   3.139
  746DIO    C2641756   7.970   7.803   3.208
  746DIO     H141757   9.691   7.512   3.280
  746DIO     H241758   9.649   7.952   3.270
  746DIO     H341759   9.472   7.843   3.077
  746DIO     H441760   9.221   7.817   3.062
  746DIO     H541761   9.222   7.564   3.419
  746DIO     H641762   8.613   7.651   3.015
  746DIO     H741763   8.601   7.374   3.355
  746DIO     H841764   8.444   7.395   3.090
  746DIO     H941765   8.407   7.746   3.193
  746DIO    H1041766   8.268   7.760   3.089
  746DIO    H1141767   8.209   7.731   3.335
  746DIO    H1241768   8.252   7.500   3.431
  746DIO    H1341769   8.399   7.591   3.399
  746DIO    H1441770   8.119   7.491   3.166
  746DIO    H1541771   8.043   7.551   3.312
  746DIO    H1641772   8.056   7.694   3.043
  746DIO    H1741773   7.917   7.617   3.116
  746DIO    H1841774   7.926   7.784   3.306
  746DIO    H1941775   8.057   7.869   3.220
  746DIO    H2041776   7.896   7.857   3.147
  747DIO     F141777   7.412   1.977   6.024
  747DIO     C141778   7.334   1.982   5.914
  747DIO     C241779   7.190   1.973   5.928
  747DIO     C341780   7.101   1.975   5.810
  747DIO     C441781   7.167   1.990   5.677
  747DIO     C541782   7.311   1.999   5.666
  747DIO     F241783   7.367   2.017   5.544
  747DIO     C641784   7.395   1.996   5.783
  747DIO     F341785   7.529   2.003   5.771
  747DIO     C741786   6.955   1.965   5.822
  747DIO     C841787   6.878   1.868   5.741
  747DIO     C941788   6.733   1.858   5.752
  747DIO    C1041789   6.661   1.951   5.837
  747DIO    C1141790   6.733   2.042   5.923
  747DIO    C1241791   6.877   2.050   5.914
  747DIO     F441792   6.942   2.140   5.991
  747DIO     O141793   6.528   1.921   5.862
  747DIO    C1341794   6.434   2.022   5.878
  747DIO     O241795   6.433   2.144   5.847
  747DIO    C1441796   6.305   1.971   5.926
  747DIO    C1541797   6.238   1.855   5.863
  747DIO     F541798   6.301   1.786   5.765
  747DIO    C1641799   6.108   1.807   5.904
  747DIO    C1741800   6.032   1.878   6.006
  747DIO    C1841801   6.101   1.983   6.081
  747DIO    C1941802   6.232   2.029   6.041
  747DIO     F641803   6.295   2.115   6.124
  747DIO    C2041804   5.891   1.837   6.042
  747DIO     O341805   5.821   1.771   5.936
  747DIO    C2141806   5.778   1.860   5.835
  747DIO    C2241807   5.689   1.970   5.893
  747DIO    C2341808   5.770   2.038   6.003
  747DIO     O441809   5.814   1.943   6.100
  747DIO    C2441810   5.556   1.916   5.950
  747DIO    C2541811   5.465   1.842   5.851
  747DIO    C2641812   5.427   1.924   5.730
  747DIO     H141813   7.148   1.964   6.027
  747DIO     H241814   7.106   2.003   5.588
  747DIO     H341815   6.929   1.799   5.675
  747DIO     H441816   6.678   1.782   5.700
  747DIO     H541817   6.679   2.108   5.990
  747DIO     H641818   6.070   1.716   5.859
  747DIO     H741819   6.058   2.023   6.172
  747DIO     H841820   5.901   1.762   6.122
  747DIO     H941821   5.864   1.904   5.784
  747DIO    H1041822   5.725   1.802   5.759
  747DIO    H1141823   5.666   2.043   5.815
  747DIO    H1241824   5.709   2.112   6.055
  747DIO    H1341825   5.856   2.091   5.961
  747DIO    H1441826   5.576   1.848   6.035
  747DIO    H1541827   5.500   2.000   5.992
  747DIO    H1641828   5.513   1.748   5.819
  747DIO    H1741829   5.374   1.813   5.904
  747DIO    H1841830   5.383   2.020   5.759
  747DIO    H1941831   5.514   1.944   5.666
  747DIO    H2041832   5.353   1.870   5.669
  748DIO     F141833   9.955   8.314   8.332
  748DIO     C141834   9.877   8.390   8.412
  748DIO     C241835   9.733   8.386   8.395
  748DIO     C341836   9.644   8.469   8.480
  748DIO     C441837   9.710   8.554   8.582
  748DIO     C541838   9.854   8.556   8.597
  748DIO     F241839   9.910   8.631   8.694
  748DIO     C641840   9.938   8.474   8.512
  748DIO     F341841  10.072   8.478   8.526
  748DIO     C741842   9.498   8.468   8.464
  748DIO     C841843   9.421   8.594   8.450
  748DIO     C941844   9.276   8.592   8.435
  748DIO    C1041845   9.204   8.467   8.443
  748DIO    C1141846   9.276   8.341   8.448
  748DIO    C1241847   9.420   8.342   8.461
  748DIO     F441848   9.485   8.225   8.471
  748DIO     O141849   9.071   8.470   8.404
  748DIO    C1341850   8.977   8.388   8.465
  748DIO     O241851   8.976   8.326   8.574
  748DIO    C1441852   8.848   8.389   8.396
  748DIO    C1541853   8.781   8.515   8.356
  748DIO     F541854   8.844   8.634   8.375
  748DIO    C1641855   8.651   8.519   8.293
  748DIO    C1741856   8.575   8.396   8.273
  748DIO    C1841857   8.644   8.269   8.296
  748DIO    C1941858   8.775   8.266   8.357
  748DIO     F641859   8.838   8.146   8.361
  748DIO    C2041860   8.434   8.398   8.218
  748DIO     O341861   8.364   8.521   8.244
  748DIO    C2141862   8.321   8.532   8.379
  748DIO    C2241863   8.232   8.414   8.417
  748DIO    C2341864   8.313   8.287   8.390
  748DIO     O441865   8.357   8.284   8.255
  748DIO    C2441866   8.099   8.410   8.339
  748DIO    C2541867   8.008   8.532   8.354
  748DIO    C2641868   7.970   8.562   8.498
  748DIO     H141869   9.691   8.321   8.320
  748DIO     H241870   9.649   8.609   8.653
  748DIO     H341871   9.472   8.689   8.446
  748DIO     H441872   9.221   8.683   8.417
  748DIO     H541873   9.222   8.247   8.449
  748DIO     H641874   8.613   8.614   8.258
  748DIO     H741875   8.601   8.176   8.262
  748DIO     H841876   8.444   8.394   8.109
  748DIO     H941877   8.407   8.537   8.446
  748DIO    H1041878   8.268   8.627   8.390
  748DIO    H1141879   8.209   8.418   8.525
  748DIO    H1241880   8.252   8.198   8.407
  748DIO    H1341881   8.399   8.280   8.457
  748DIO    H1441882   8.119   8.396   8.232
  748DIO    H1541883   8.043   8.321   8.371
  748DIO    H1641884   8.056   8.621   8.310
  748DIO    H1741885   7.917   8.515   8.297
  748DIO    H1841886   7.926   8.475   8.547
  748DIO    H1941887   8.057   8.595   8.557
  748DIO    H2041888   7.896   8.643   8.501
  749DIO     F141889   6.027   9.813   8.742
  749DIO     C141890   5.949   9.766   8.643
  749DIO     C241891   5.805   9.765   8.660
  749DIO     C341892   5.716   9.712   8.554
  749DIO     C441893   5.782   9.663   8.430
  749DIO     C541894   5.926   9.666   8.415
  749DIO     F241895   5.981   9.625   8.300
  749DIO     C641896   6.010   9.718   8.521
  749DIO     F341897   6.143   9.719   8.507
  749DIO     C741898   5.570   9.708   8.569
  749DIO     C841899   5.493   9.585   8.543
  749DIO     C941900   5.348   9.581   8.558
  749DIO    C1041901   5.275   9.703   8.589
  749DIO    C1141902   5.348   9.824   8.623
  749DIO    C1241903   5.492   9.827   8.611
  749DIO     F441904   5.557   9.942   8.638
  749DIO     O141905   5.143   9.688   8.625
  749DIO    C1341906   5.049   9.784   8.592
  749DIO     O241907   5.048   9.878   8.508
  749DIO    C1441908   4.920   9.762   8.658
  749DIO    C1541909   4.853   9.630   8.657
  749DIO     F541910   4.916   9.523   8.602
  749DIO    C1641911   4.722   9.607   8.715
  749DIO    C1741912   4.647   9.717   8.773
  749DIO    C1841913   4.715   9.845   8.791
  749DIO    C1941914   4.847   9.867   8.733
  749DIO     F641915   4.910   9.982   8.766
  749DIO    C2041916   4.506   9.698   8.824
  749DIO     O341917   4.436   9.590   8.761
  749DIO    C2141918   4.393   9.622   8.629
  749DIO    C2241919   4.304   9.746   8.630
  749DIO    C2341920   4.384   9.857   8.696
  749DIO     O441921   4.429   9.818   8.825
  749DIO    C2441922   4.171   9.725   8.706
  749DIO    C2541923   4.080   9.613   8.653
  749DIO    C2641924   4.042   9.629   8.507
  749DIO     H141925   5.762   9.803   8.752
  749DIO     H241926   5.721   9.633   8.345
  749DIO     H341927   5.544   9.493   8.517
  749DIO     H441928   5.293   9.489   8.546
  749DIO     H541929   5.293   9.913   8.652
  749DIO     H641930   4.684   9.505   8.719
  749DIO     H741931   4.673   9.923   8.852
  749DIO     H841932   4.516   9.668   8.929
  749DIO     H941933   4.479   9.637   8.564
  749DIO    H1041934   4.340   9.535   8.590
  749DIO    H1141935   4.281   9.775   8.527
  749DIO    H1241936   4.323   9.947   8.707
  749DIO    H1341937   4.471   9.885   8.634
  749DIO    H1441938   4.191   9.704   8.812
  749DIO    H1541939   4.114   9.819   8.703
  749DIO    H1641940   4.128   9.515   8.668
  749DIO    H1741941   3.988   9.612   8.713
  749DIO    H1841942   3.998   9.728   8.488
  749DIO    H1941943   4.128   9.617   8.441
  749DIO    H2041944   3.968   9.554   8.479
  750DIO     F141945   5.686   3.145   6.946
  750DIO     C141946   5.608   3.062   6.874
  750DIO     C241947   5.464   3.068   6.890
  750DIO     C341948   5.375   2.977   6.814
  750DIO     C441949   5.441   2.883   6.720
  750DIO     C541950   5.585   2.880   6.706
  750DIO     F241951   5.640   2.796   6.616
  750DIO     C641952   5.669   2.969   6.782
  750DIO     F341953   5.802   2.964   6.769
  750DIO     C741954   5.229   2.980   6.830
  750DIO     C841955   5.152   2.856   6.855
  750DIO     C941956   5.007   2.859   6.870
  750DIO    C1041957   4.934   2.983   6.850
  750DIO    C1141958   5.007   3.108   6.833
  750DIO    C1241959   5.151   3.105   6.821
  750DIO     F441960   5.216   3.221   6.799
  750DIO     O141961   4.802   2.983   6.889
  750DIO    C1341962   4.708   3.059   6.821
  750DIO     O241963   4.707   3.111   6.706
  750DIO    C1441964   4.579   3.065   6.890
  750DIO    C1541965   4.512   2.943   6.942
  750DIO     F541966   4.575   2.824   6.934
  750DIO    C1641967   4.381   2.946   7.004
  750DIO    C1741968   4.306   3.070   7.013
  750DIO    C1841969   4.374   3.194   6.978
  750DIO    C1941970   4.506   3.191   6.917
  750DIO     F641971   4.569   3.310   6.901
  750DIO    C2041972   4.165   3.072   7.067
  750DIO     O341973   4.095   2.948   7.053
  750DIO    C2141974   4.052   2.925   6.920
  750DIO    C2241975   3.963   3.038   6.871
  750DIO    C2341976   4.043   3.167   6.886
  750DIO     O441977   4.088   3.183   7.021
  750DIO    C2441978   3.830   3.050   6.949
  750DIO    C2541979   3.739   2.926   6.945
  750DIO    C2641980   3.701   2.883   6.804
  750DIO     H141981   5.421   3.140   6.959
  750DIO     H241982   5.380   2.821   6.655
  750DIO     H341983   5.203   2.762   6.868
  750DIO     H441984   4.952   2.770   6.897
  750DIO     H541985   4.952   3.201   6.824
  750DIO     H641986   4.343   2.854   7.048
  750DIO     H741987   4.332   3.290   7.003
  750DIO     H841988   4.175   3.088   7.176
  750DIO     H941989   4.138   2.912   6.854
  750DIO    H1041990   3.999   2.829   6.918
  750DIO    H1141991   3.940   3.024   6.764
  750DIO    H1241992   3.982   3.254   6.860
  750DIO    H1341993   4.130   3.168   6.818
  750DIO    H1441994   3.850   3.073   7.054
  750DIO    H1541995   3.773   3.135   6.909
  750DIO    H1641996   3.787   2.843   6.997
  750DIO    H1741997   3.647   2.949   7.000
  750DIO    H1841998   3.657   2.966   6.748
  750DIO    H1941999   3.787   2.845   6.749
  750DIO    H2042000   3.627   2.802   6.809
    1DIO     F142001   4.801   5.888   7.818
    1DIO     C142002   4.879   5.998   7.823
    1DIO     C242003   5.023   5.983   7.831
    1DIO     C342004   5.112   6.101   7.840
    1DIO     C442005   5.046   6.234   7.838
    1DIO     C542006   4.902   6.246   7.830
    1DIO     F242007   4.847   6.369   7.824
    1DIO     C642008   4.818   6.129   7.822
    1DIO     F342009   4.685   6.142   7.816
    1DIO     C742010   5.258   6.088   7.849
    1DIO     C842011   5.335   6.159   7.953
    1DIO     C942012   5.480   6.147   7.962
    1DIO    C1042013   5.553   6.071   7.862
    1DIO    C1142014   5.480   5.994   7.762
    1DIO    C1242015   5.336   6.004   7.755
    1DIO     F442016   5.271   5.936   7.659
    1DIO     O142017   5.685   6.044   7.889
    1DIO    C1342018   5.779   6.037   7.787
    1DIO     O242019   5.780   6.080   7.669
    1DIO    C1442020   5.909   5.985   7.833
    1DIO    C1542021   5.975   6.037   7.955
    1DIO     F542022   5.912   6.127   8.033
    1DIO    C1642023   6.106   5.991   7.998
    1DIO    C1742024   6.181   5.896   7.918
    1DIO    C1842025   6.113   5.831   7.807
    1DIO    C1942026   5.981   5.876   7.765
    1DIO     F642027   5.919   5.801   7.671
    1DIO    C2042028   6.322   5.856   7.955
    1DIO     O342029   6.392   5.955   8.032
    1DIO    C2142030   6.436   6.065   7.952
    1DIO    C2242031   6.524   6.017   7.838
    1DIO    C2342032   6.444   5.914   7.759
    1DIO     O442033   6.399   5.809   7.844
    1DIO    C2442034   6.657   5.955   7.886
    1DIO    C2542035   6.748   6.046   7.969
    1DIO    C2642036   6.786   6.175   7.898
    1DIO     H142037   5.066   5.883   7.831
    1DIO     H242038   5.107   6.324   7.834
    1DIO     H342039   5.284   6.218   8.028
    1DIO     H442040   5.535   6.192   8.043
    1DIO     H542041   5.535   5.933   7.691
    1DIO     H642042   6.144   6.026   8.093
    1DIO     H742043   6.156   5.745   7.757
    1DIO     H842044   6.312   5.770   8.022
    1DIO     H942045   6.349   6.119   7.913
    1DIO    H1042046   6.488   6.135   8.018
    1DIO    H1142047   6.547   6.102   7.772
    1DIO    H1242048   6.505   5.869   7.680
    1DIO    H1342049   6.358   5.961   7.710
    1DIO    H1442050   6.637   5.865   7.945
    1DIO    H1542051   6.714   5.922   7.798
    1DIO    H1642052   6.701   6.070   8.065
    1DIO    H1742053   6.840   5.991   7.993
    1DIO    H1842054   6.830   6.155   7.800
    1DIO    H1942055   6.700   6.241   7.885
    1DIO    H2042056   6.860   6.230   7.958
    2DIO     F142057   2.253   6.398   6.176
    2DIO     C142058   2.331   6.317   6.102
    2DIO     C242059   2.475   6.333   6.105
    2DIO     C342060   2.564   6.247   6.024
    2DIO     C442061   2.498   6.143   5.942
    2DIO     C542062   2.354   6.128   5.940
    2DIO     F242063   2.299   6.029   5.868
    2DIO     C642064   2.270   6.214   6.020
    2DIO     F342065   2.137   6.200   6.017
    2DIO     C742066   2.710   6.263   6.025
    2DIO     C842067   2.787   6.274   5.900
    2DIO     C942068   2.932   6.289   5.901
    2DIO    C1042069   3.005   6.284   6.026
    2DIO    C1142070   2.932   6.281   6.152
    2DIO    C1242071   2.788   6.269   6.151
    2DIO     F442072   2.723   6.261   6.269
    2DIO     O142073   3.137   6.323   6.022
    2DIO    C1342074   3.231   6.263   6.105
    2DIO     O242075   3.232   6.156   6.170
    2DIO    C1442076   3.361   6.333   6.102
    2DIO    C1542077   3.427   6.370   5.975
    2DIO     F542078   3.364   6.348   5.858
    2DIO    C1642079   3.558   6.432   5.971
    2DIO    C1742080   3.633   6.455   6.093
    2DIO    C1842081   3.565   6.436   6.220
    2DIO    C1942082   3.433   6.374   6.225
    2DIO     F642083   3.371   6.373   6.344
    2DIO    C2042084   3.774   6.510   6.089
    2DIO     O342085   3.844   6.481   5.967
    2DIO    C2142086   3.888   6.346   5.960
    2DIO    C2242087   3.976   6.311   6.079
    2DIO    C2342088   3.896   6.341   6.205
    2DIO     O442089   3.851   6.476   6.205
    2DIO    C2442090   4.109   6.389   6.081
    2DIO    C2542091   4.200   6.371   5.959
    2DIO    C2642092   4.238   6.226   5.932
    2DIO     H142093   2.518   6.410   6.169
    2DIO     H242094   2.559   6.070   5.888
    2DIO     H342095   2.736   6.275   5.804
    2DIO     H442096   2.987   6.305   5.809
    2DIO     H542097   2.987   6.283   6.245
    2DIO     H642098   3.596   6.465   5.875
    2DIO     H742099   3.608   6.472   6.313
    2DIO     H842100   3.764   6.619   6.091
    2DIO     H942101   3.801   6.279   5.955
    2DIO    H1042102   3.940   6.333   5.865
    2DIO    H1142103   3.999   6.203   6.076
    2DIO    H1242104   3.957   6.326   6.294
    2DIO    H1342105   3.810   6.274   6.213
    2DIO    H1442106   4.089   6.497   6.092
    2DIO    H1542107   4.166   6.360   6.170
    2DIO    H1642108   4.153   6.413   5.869
    2DIO    H1742109   4.292   6.429   5.975
    2DIO    H1842110   4.282   6.180   6.021
    2DIO    H1942111   4.152   6.167   5.901
    2DIO    H2042112   4.312   6.221   5.851
    3DIO     F142113   1.311   6.278   3.811
    3DIO     C142114   1.388   6.173   3.778
    3DIO     C242115   1.532   6.190   3.774
    3DIO     C342116   1.621   6.077   3.737
    3DIO     C442117   1.556   5.948   3.705
    3DIO     C542118   1.411   5.934   3.710
    3DIO     F242119   1.356   5.814   3.685
    3DIO     C642120   1.328   6.046   3.747
    3DIO     F342121   1.194   6.032   3.750
    3DIO     C742122   1.767   6.092   3.731
    3DIO     C842123   1.845   6.050   3.612
    3DIO     C942124   1.989   6.064   3.607
    3DIO    C1042125   2.062   6.112   3.723
    3DIO    C1142126   1.989   6.162   3.839
    3DIO    C1242127   1.845   6.150   3.843
    3DIO     F442128   1.780   6.192   3.953
    3DIO     O142129   2.194   6.145   3.703
    3DIO    C1342130   2.289   6.126   3.803
    3DIO     O242131   2.289   6.055   3.907
    3DIO    C1442132   2.418   6.188   3.772
    3DIO    C1542133   2.484   6.169   3.641
    3DIO     F542134   2.421   6.100   3.543
    3DIO    C1642135   2.615   6.224   3.611
    3DIO    C1742136   2.691   6.295   3.713
    3DIO    C1842137   2.622   6.330   3.836
    3DIO    C1942138   2.490   6.277   3.866
    3DIO     F642139   2.428   6.325   3.975
    3DIO    C2042140   2.831   6.343   3.686
    3DIO     O342141   2.901   6.266   3.587
    3DIO    C2142142   2.945   6.140   3.637
    3DIO    C2242143   3.034   6.158   3.760
    3DIO    C2342144   2.953   6.238   3.862
    3DIO     O442145   2.909   6.361   3.805
    3DIO    C2442146   3.166   6.230   3.729
    3DIO    C2542147   3.257   6.162   3.625
    3DIO    C2642148   3.295   6.020   3.661
    3DIO     H142149   1.575   6.286   3.800
    3DIO     H242150   1.616   5.860   3.687
    3DIO     H342151   1.793   6.012   3.525
    3DIO     H442152   2.044   6.040   3.517
    3DIO     H542153   2.044   6.202   3.923
    3DIO     H642154   2.653   6.213   3.510
    3DIO     H742155   2.665   6.402   3.906
    3DIO     H842156   2.822   6.444   3.643
    3DIO     H942157   2.858   6.078   3.661
    3DIO    H1042158   2.997   6.089   3.556
    3DIO    H1142159   3.056   6.059   3.802
    3DIO    H1242160   3.014   6.261   3.949
    3DIO    H1342161   2.867   6.180   3.897
    3DIO    H1442162   3.146   6.332   3.694
    3DIO    H1542163   3.223   6.240   3.822
    3DIO    H1642164   3.210   6.164   3.526
    3DIO    H1742165   3.349   6.222   3.616
    3DIO    H1842166   3.339   6.015   3.761
    3DIO    H1942167   3.209   5.953   3.658
    3DIO    H2042168   3.369   5.982   3.590
    4DIO     F142169   1.079   2.203   9.319
    4DIO     C142170   1.156   2.132   9.403
    4DIO     C242171   1.300   2.135   9.386
    4DIO     C342172   1.389   2.056   9.474
    4DIO     C442173   1.324   1.976   9.580
    4DIO     C542174   1.179   1.975   9.595
    4DIO     F242175   1.124   1.904   9.696
    4DIO     C642176   1.096   2.052   9.507
    4DIO     F342177   0.962   2.050   9.521
    4DIO     C742178   1.535   2.056   9.458
    4DIO     C842179   1.613   1.930   9.450
    4DIO     C942180   1.757   1.931   9.435
    4DIO    C1042181   1.830   2.057   9.437
    4DIO    C1142182   1.757   2.182   9.437
    4DIO    C1242183   1.613   2.182   9.449
    4DIO     F442184   1.548   2.300   9.454
    4DIO     O142185   1.962   2.051   9.398
    4DIO    C1342186   2.057   2.136   9.456
    4DIO     O242187   2.057   2.204   9.562
    4DIO    C1442188   2.186   2.132   9.386
    4DIO    C1542189   2.252   2.004   9.353
    4DIO     F542190   2.189   1.887   9.377
    4DIO    C1642191   2.383   1.997   9.290
    4DIO    C1742192   2.459   2.119   9.264
    4DIO    C1842193   2.390   2.247   9.281
    4DIO    C1942194   2.258   2.253   9.342
    4DIO     F642195   2.196   2.373   9.341
    4DIO    C2042196   2.599   2.114   9.210
    4DIO     O342197   2.669   1.993   9.241
    4DIO    C2142198   2.713   1.989   9.377
    4DIO    C2242199   2.802   2.108   9.409
    4DIO    C2342200   2.721   2.234   9.376
    4DIO     O442201   2.677   2.231   9.240
    4DIO    C2442202   2.934   2.108   9.330
    4DIO    C2542203   3.025   1.987   9.352
    4DIO    C2642204   3.063   1.964   9.497
    4DIO     H142205   1.343   2.196   9.307
    4DIO     H242206   1.384   1.924   9.654
    4DIO     H342207   1.561   1.835   9.451
    4DIO     H442208   1.812   1.839   9.421
    4DIO     H542209   1.812   2.276   9.433
    4DIO     H642210   2.421   1.901   9.260
    4DIO     H742211   2.433   2.339   9.243
    4DIO     H842212   2.590   2.114   9.100
    4DIO     H942213   2.626   1.986   9.444
    4DIO    H1042214   2.765   1.894   9.392
    4DIO    H1142215   2.824   2.109   9.517
    4DIO    H1242216   2.782   2.324   9.389
    4DIO    H1342217   2.635   2.244   9.443
    4DIO    H1442218   2.914   2.117   9.223
    4DIO    H1542219   2.991   2.198   9.358
    4DIO    H1642220   2.978   1.897   9.312
    4DIO    H1742221   3.117   2.002   9.294
    4DIO    H1842222   3.107   2.054   9.541
    4DIO    H1942223   2.977   1.934   9.557
    4DIO    H2042224   3.137   1.883   9.504
    5DIO     F142225   4.057   5.407   4.643
    5DIO     C142226   4.134   5.330   4.565
    5DIO     C242227   4.279   5.346   4.569
    5DIO     C342228   4.367   5.264   4.484
    5DIO     C442229   4.302   5.164   4.396
    5DIO     C542230   4.158   5.150   4.394
    5DIO     F242231   4.102   5.055   4.316
    5DIO     C642232   4.074   5.232   4.478
    5DIO     F342233   3.940   5.218   4.474
    5DIO     C742234   4.514   5.280   4.486
    5DIO     C842235   4.591   5.297   4.361
    5DIO     C942236   4.736   5.312   4.363
    5DIO    C1042237   4.808   5.301   4.488
    5DIO    C1142238   4.736   5.292   4.613
    5DIO    C1242239   4.592   5.279   4.611
    5DIO     F442240   4.527   5.265   4.729
    5DIO     O142241   4.940   5.340   4.485
    5DIO    C1342242   5.035   5.276   4.565
    5DIO     O242243   5.036   5.165   4.625
    5DIO    C1442244   5.164   5.346   4.566
    5DIO    C1542245   5.230   5.389   4.441
    5DIO     F542246   5.168   5.374   4.323
    5DIO    C1642247   5.361   5.452   4.440
    5DIO    C1742248   5.437   5.469   4.563
    5DIO    C1842249   5.368   5.442   4.689
    5DIO    C1942250   5.236   5.381   4.691
    5DIO     F642251   5.174   5.373   4.810
    5DIO    C2042252   5.578   5.523   4.562
    5DIO     O342253   5.647   5.501   4.439
    5DIO    C2142254   5.691   5.366   4.425
    5DIO    C2242255   5.780   5.325   4.541
    5DIO    C2342256   5.699   5.349   4.669
    5DIO     O442257   5.655   5.484   4.676
    5DIO    C2442258   5.913   5.403   4.548
    5DIO    C2542259   6.003   5.391   4.425
    5DIO    C2642260   6.042   5.248   4.391
    5DIO     H142261   4.321   5.420   4.637
    5DIO     H242262   4.362   5.095   4.339
    5DIO     H342263   4.539   5.304   4.266
    5DIO     H442264   4.791   5.333   4.272
    5DIO     H542265   4.790   5.289   4.707
    5DIO     H642266   5.399   5.489   4.346
    5DIO     H742267   5.411   5.473   4.784
    5DIO     H842268   5.568   5.632   4.570
    5DIO     H942269   5.604   5.300   4.417
    5DIO    H1042270   5.744   5.358   4.329
    5DIO    H1142271   5.802   5.218   4.534
    5DIO    H1242272   5.760   5.329   4.758
    5DIO    H1342273   5.613   5.281   4.674
    5DIO    H1442274   5.893   5.510   4.564
    5DIO    H1542275   5.969   5.369   4.635
    5DIO    H1642276   5.956   5.438   4.338
    5DIO    H1742277   6.095   5.448   4.444
    5DIO    H1842278   6.086   5.197   4.477
    5DIO    H1942279   5.955   5.190   4.357
    5DIO    H2042280   6.115   5.247   4.310
    6DIO     F142281   3.612   3.942   6.662
    6DIO     C142282   3.689   4.023   6.738
    6DIO     C242283   3.833   4.006   6.734
    6DIO     C342284   3.922   4.091   6.816
    6DIO     C442285   3.857   4.194   6.900
    6DIO     C542286   3.712   4.209   6.902
    6DIO     F242287   3.657   4.307   6.977
    6DIO     C642288   3.629   4.124   6.821
    6DIO     F342289   3.495   4.138   6.824
    6DIO     C742290   4.068   4.075   6.815
    6DIO     C842291   4.146   4.063   6.941
    6DIO     C942292   4.290   4.047   6.939
    6DIO    C1042293   4.363   4.054   6.814
    6DIO    C1142294   4.290   4.059   6.688
    6DIO    C1242295   4.146   4.072   6.690
    6DIO     F442296   4.081   4.081   6.572
    6DIO     O142297   4.495   4.016   6.818
    6DIO    C1342298   4.590   4.076   6.735
    6DIO     O242299   4.590   4.185   6.672
    6DIO    C1442300   4.719   4.007   6.737
    6DIO    C1542301   4.785   3.968   6.863
    6DIO     F542302   4.722   3.987   6.981
    6DIO    C1642303   4.916   3.905   6.867
    6DIO    C1742304   4.992   3.884   6.744
    6DIO    C1842305   4.923   3.906   6.617
    6DIO    C1942306   4.791   3.967   6.614
    6DIO     F642307   4.729   3.971   6.494
    6DIO    C2042308   5.132   3.829   6.747
    6DIO     O342309   5.202   3.856   6.869
    6DIO    C2142310   5.246   3.991   6.879
    6DIO    C2242311   5.335   4.029   6.761
    6DIO    C2342312   5.254   4.000   6.634
    6DIO     O442313   5.210   3.865   6.632
    6DIO    C2442314   5.467   3.950   6.758
    6DIO    C2542315   5.558   3.966   6.880
    6DIO    C2642316   5.596   4.111   6.909
    6DIO     H142317   3.876   3.930   6.669
    6DIO     H242318   3.917   4.266   6.955
    6DIO     H342319   4.094   4.059   7.036
    6DIO     H442320   4.345   4.030   7.031
    6DIO     H542321   4.345   4.059   6.595
    6DIO     H642322   4.954   3.871   6.963
    6DIO     H742323   4.966   3.872   6.524
    6DIO     H842324   5.123   3.720   6.743
    6DIO     H942325   5.159   4.058   6.885
    6DIO    H1042326   5.298   4.003   6.974
    6DIO    H1142327   5.357   4.136   6.765
    6DIO    H1242328   5.315   4.017   6.545
    6DIO    H1342329   5.168   4.068   6.627
    6DIO    H1442330   5.447   3.843   6.745
    6DIO    H1542331   5.524   3.981   6.669
    6DIO    H1642332   5.511   3.923   6.969
    6DIO    H1742333   5.650   3.909   6.863
    6DIO    H1842334   5.640   4.158   6.821
    6DIO    H1942335   5.510   4.170   6.941
    6DIO    H2042336   5.670   4.114   6.990
    7DIO     F142337   0.304   2.138   3.791
    7DIO     C142338   0.382   2.247   3.781
    7DIO     C242339   0.526   2.234   3.791
    7DIO     C342340   0.615   2.352   3.783
    7DIO     C442341   0.549   2.483   3.762
    7DIO     C542342   0.405   2.494   3.752
    7DIO     F242343   0.349   2.615   3.729
    7DIO     C642344   0.321   2.377   3.761
    7DIO     F342345   0.187   2.389   3.753
    7DIO     C742346   0.761   2.340   3.794
    7DIO     C842347   0.838   2.425   3.887
    7DIO     C942348   0.983   2.414   3.897
    7DIO    C1042349   1.055   2.325   3.809
    7DIO    C1142350   0.983   2.235   3.721
    7DIO    C1242351   0.839   2.244   3.713
    7DIO     F442352   0.774   2.163   3.627
    7DIO     O142353   1.188   2.302   3.840
    7DIO    C1342354   1.282   2.281   3.740
    7DIO     O242355   1.283   2.306   3.617
    7DIO    C1442356   1.411   2.236   3.793
    7DIO    C1542357   1.478   2.304   3.906
    7DIO     F542358   1.415   2.405   3.970
    7DIO    C1642359   1.608   2.265   3.956
    7DIO    C1742360   1.684   2.160   3.889
    7DIO    C1842361   1.615   2.080   3.789
    7DIO    C1942362   1.484   2.118   3.741
    7DIO     F642363   1.421   2.031   3.658
    7DIO    C2042364   1.825   2.126   3.932
    7DIO     O342365   1.895   2.235   3.993
    7DIO    C2142366   1.938   2.332   3.899
    7DIO    C2242367   2.027   2.269   3.793
    7DIO    C2342368   1.946   2.155   3.730
    7DIO     O442369   1.902   2.063   3.829
    7DIO    C2442370   2.160   2.214   3.849
    7DIO    C2542371   2.251   2.316   3.918
    7DIO    C2642372   2.289   2.434   3.830
    7DIO     H142373   0.568   2.135   3.805
    7DIO     H242374   0.610   2.571   3.745
    7DIO     H342375   0.787   2.494   3.953
    7DIO     H442376   1.038   2.471   3.971
    7DIO     H542377   1.037   2.165   3.659
    7DIO     H642378   1.646   2.314   4.045
    7DIO     H742379   1.658   1.987   3.752
    7DIO     H842380   1.815   2.050   4.011
    7DIO     H942381   1.852   2.381   3.853
    7DIO    H1042382   1.991   2.411   3.954
    7DIO    H1142383   2.050   2.343   3.715
    7DIO    H1242384   2.007   2.100   3.658
    7DIO    H1342385   1.860   2.195   3.674
    7DIO    H1442386   2.140   2.133   3.921
    7DIO    H1542387   2.216   2.168   3.767
    7DIO    H1642388   2.203   2.353   4.010
    7DIO    H1742389   2.342   2.265   3.950
    7DIO    H1842390   2.333   2.400   3.736
    7DIO    H1942391   2.202   2.497   3.807
    7DIO    H2042392   2.363   2.497   3.881
    8DIO     F142393   4.771   8.948   4.338
    8DIO     C142394   4.849   8.963   4.447
    8DIO     C242395   4.993   8.952   4.434
    8DIO     C342396   5.082   8.966   4.551
    8DIO     C442397   5.016   8.993   4.682
    8DIO     C542398   4.872   9.003   4.692
    8DIO     F242399   4.817   9.032   4.812
    8DIO     C642400   4.788   8.989   4.576
    8DIO     F342401   4.655   8.997   4.587
    8DIO     C742402   5.228   8.954   4.540
    8DIO     C842403   5.305   8.865   4.630
    8DIO     C942404   5.450   8.854   4.619
    8DIO    C1042405   5.523   8.939   4.526
    8DIO    C1142406   5.450   9.022   4.432
    8DIO    C1242407   5.306   9.031   4.441
    8DIO     F442408   5.241   9.113   4.355
    8DIO     O142409   5.655   8.906   4.505
    8DIO    C1342410   5.749   9.005   4.479
    8DIO     O242411   5.750   9.130   4.499
    8DIO    C1442412   5.879   8.951   4.436
    8DIO    C1542413   5.945   8.841   4.510
    8DIO     F542414   5.882   8.781   4.614
    8DIO    C1642415   6.076   8.789   4.473
    8DIO    C1742416   6.151   8.851   4.365
    8DIO    C1842417   6.083   8.948   4.280
    8DIO    C1942418   5.951   8.998   4.316
    8DIO     F642419   5.889   9.076   4.226
    8DIO    C2042420   6.292   8.806   4.333
    8DIO     O342421   6.362   8.750   4.444
    8DIO    C2142422   6.406   8.849   4.537
    8DIO    C2242423   6.494   8.952   4.469
    8DIO    C2342424   6.414   9.010   4.353
    8DIO     O442425   6.369   8.907   4.266
    8DIO    C2442426   6.627   8.893   4.417
    8DIO    C2542427   6.718   8.829   4.522
    8DIO    C2642428   6.756   8.922   4.636
    8DIO     H142429   5.036   8.934   4.336
    8DIO     H242430   5.077   9.014   4.769
    8DIO     H342431   5.254   8.803   4.701
    8DIO     H442432   5.505   8.783   4.679
    8DIO     H542433   5.505   9.081   4.359
    8DIO     H642434   6.114   8.703   4.526
    8DIO     H742435   6.126   8.980   4.186
    8DIO     H842436   6.282   8.724   4.260
    8DIO     H942437   6.319   8.897   4.583
    8DIO    H1042438   6.458   8.798   4.618
    8DIO    H1142439   6.517   9.033   4.540
    8DIO    H1242440   6.475   9.079   4.294
    8DIO    H1342441   6.328   9.067   4.390
    8DIO    H1442442   6.607   8.818   4.339
    8DIO    H1542443   6.684   8.974   4.368
    8DIO    H1642444   6.671   8.739   4.563
    8DIO    H1742445   6.810   8.795   4.472
    8DIO    H1842446   6.800   9.015   4.597
    8DIO    H1942447   6.670   8.948   4.698
    8DIO    H2042448   6.830   8.874   4.701
    9DIO     F142449   5.097   5.797   3.705
    9DIO     C142450   5.175   5.860   3.615
    9DIO     C242451   5.319   5.859   3.632
    9DIO     C342452   5.408   5.929   3.537
    9DIO     C442453   5.342   5.998   3.424
    9DIO     C542454   5.198   5.998   3.409
    9DIO     F242455   5.142   6.059   3.302
    9DIO     C642456   5.114   5.929   3.504
    9DIO     F342457   4.980   5.931   3.490
    9DIO     C742458   5.554   5.930   3.553
    9DIO     C842459   5.631   6.056   3.549
    9DIO     C942460   5.776   6.057   3.564
    9DIO    C1042461   5.848   5.932   3.574
    9DIO    C1142462   5.776   5.806   3.586
    9DIO    C1242463   5.632   5.806   3.573
    9DIO     F442464   5.567   5.688   3.580
    9DIO     O142465   5.981   5.941   3.612
    9DIO    C1342466   6.075   5.851   3.563
    9DIO     O242467   6.076   5.774   3.463
    9DIO    C1442468   6.204   5.862   3.632
    9DIO    C1542469   6.270   5.992   3.653
    9DIO     F542470   6.208   6.106   3.618
    9DIO    C1642471   6.401   6.004   3.715
    9DIO    C1742472   6.477   5.885   3.752
    9DIO    C1842473   6.408   5.757   3.747
    9DIO    C1942474   6.277   5.745   3.687
    9DIO     F642475   6.214   5.626   3.700
    9DIO    C2042476   6.618   5.896   3.806
    9DIO     O342477   6.687   6.013   3.763
    9DIO    C2142478   6.731   6.005   3.628
    9DIO    C2242479   6.820   5.883   3.606
    9DIO    C2342480   6.739   5.761   3.652
    9DIO     O442481   6.695   5.777   3.786
    9DIO    C2442482   6.953   5.890   3.685
    9DIO    C2542483   7.043   6.009   3.652
    9DIO    C2642484   7.082   6.019   3.505
    9DIO     H142485   5.361   5.805   3.716
    9DIO     H242486   5.403   6.043   3.346
    9DIO     H342487   5.580   6.151   3.539
    9DIO     H442488   5.831   6.150   3.569
    9DIO     H542489   5.830   5.714   3.599
    9DIO     H642490   6.439   6.104   3.736
    9DIO     H742491   6.451   5.669   3.794
    9DIO     H842492   6.608   5.906   3.914
    9DIO     H942493   6.644   6.001   3.561
    9DIO    H1042494   6.784   6.098   3.604
    9DIO    H1142495   6.843   5.872   3.500
    9DIO    H1242496   6.800   5.670   3.647
    9DIO    H1342497   6.653   5.745   3.586
    9DIO    H1442498   6.933   5.892   3.793
    9DIO    H1542499   7.009   5.798   3.666
    9DIO    H1642500   6.996   6.103   3.684
    9DIO    H1742501   7.135   6.000   3.712
    9DIO    H1842502   7.126   5.925   3.470
    9DIO    H1942503   6.995   6.042   3.443
    9DIO    H2042504   7.156   6.098   3.491
   10DIO     F142505   8.013   8.970   5.146
   10DIO     C142506   8.091   9.080   5.143
   10DIO     C242507   8.235   9.065   5.152
   10DIO     C342508   8.324   9.184   5.150
   10DIO     C442509   8.258   9.316   5.137
   10DIO     C542510   8.114   9.328   5.128
   10DIO     F242511   8.058   9.449   5.112
   10DIO     C642512   8.030   9.210   5.130
   10DIO     F342513   7.896   9.222   5.123
   10DIO     C742514   8.470   9.171   5.161
   10DIO     C842515   8.547   9.251   5.259
   10DIO     C942516   8.692   9.240   5.268
   10DIO    C1042517   8.764   9.156   5.175
   10DIO    C1142518   8.692   9.071   5.082
   10DIO    C1242519   8.548   9.080   5.074
   10DIO     F442520   8.483   9.004   4.984
   10DIO     O142521   8.897   9.131   5.205
   10DIO    C1342522   8.991   9.116   5.104
   10DIO     O242523   8.992   9.148   4.982
   10DIO    C1442524   9.120   9.068   5.154
   10DIO    C1542525   9.187   9.129   5.271
   10DIO     F542526   9.124   9.227   5.340
   10DIO    C1642527   9.317   9.088   5.318
   10DIO    C1742528   9.393   8.986   5.245
   10DIO    C1842529   9.324   8.912   5.140
   10DIO    C1942530   9.193   8.953   5.095
   10DIO     F642531   9.130   8.871   5.007
   10DIO    C2042532   9.534   8.949   5.286
   10DIO     O342533   9.604   9.055   5.354
   10DIO    C2142534   9.647   9.157   5.265
   10DIO    C2242535   9.736   9.100   5.155
   10DIO    C2342536   9.655   8.991   5.086
   10DIO     O442537   9.611   8.893   5.180
   10DIO    C2442538   9.869   9.042   5.209
   10DIO    C2542539   9.960   9.140   5.284
   10DIO    C2642540   9.998   9.263   5.202
   10DIO     H142541   8.277   8.966   5.160
   10DIO     H242542   8.319   9.405   5.126
   10DIO     H342543   8.496   9.316   5.328
   10DIO     H442544   8.747   9.292   5.346
   10DIO     H542545   8.746   9.004   5.016
   10DIO     H642546   9.355   9.131   5.409
   10DIO     H742547   9.367   8.822   5.098
   10DIO     H842548   9.524   8.869   5.360
   10DIO     H942549   9.561   9.208   5.222
   10DIO    H1042550   9.700   9.233   5.325
   10DIO    H1142551   9.759   9.179   5.082
   10DIO    H1242552   9.716   8.940   5.011
   10DIO    H1342553   9.569   9.033   5.033
   10DIO    H1442554   9.849   8.957   5.275
   10DIO    H1542555   9.925   9.002   5.124
   10DIO    H1642556   9.912   9.172   5.377
   10DIO    H1742557  10.051   9.087   5.312
   10DIO    H1842558  10.042   9.235   5.106
   10DIO    H1942559   9.911   9.327   5.183
   10DIO    H2042560  10.072   9.323   5.257
   11DIO     F142561   7.762   6.483   1.179
   11DIO     C142562   7.840   6.376   1.153
   11DIO     C242563   7.984   6.392   1.148
   11DIO     C342564   8.073   6.277   1.119
   11DIO     C442565   8.007   6.146   1.097
   11DIO     C542566   7.863   6.133   1.103
   11DIO     F242567   7.808   6.011   1.086
   11DIO     C642568   7.779   6.247   1.131
   11DIO     F342569   7.646   6.233   1.135
   11DIO     C742570   8.219   6.292   1.112
   11DIO     C842571   8.296   6.240   0.997
   11DIO     C942572   8.441   6.254   0.990
   11DIO    C1042573   8.514   6.310   1.103
   11DIO    C1142574   8.441   6.369   1.214
   11DIO    C1242575   8.297   6.357   1.219
   11DIO     F442576   8.232   6.407   1.326
   11DIO     O142577   8.646   6.342   1.080
   11DIO    C1342578   8.740   6.330   1.182
   11DIO     O242579   8.741   6.267   1.291
   11DIO    C1442580   8.870   6.390   1.146
   11DIO    C1542581   8.936   6.361   1.017
   11DIO     F542582   8.873   6.286   0.924
   11DIO    C1642583   9.067   6.414   0.983
   11DIO    C1742584   9.142   6.493   1.079
   11DIO    C1842585   9.074   6.537   1.200
   11DIO    C1942586   8.942   6.485   1.233
   11DIO     F642587   8.880   6.541   1.339
   11DIO    C2042588   9.283   6.539   1.049
   11DIO     O342589   9.353   6.455   0.956
   11DIO    C2142590   9.397   6.333   1.015
   11DIO    C2242591   9.485   6.359   1.136
   11DIO    C2342592   9.405   6.446   1.232
   11DIO     O442593   9.360   6.565   1.167
   11DIO    C2442594   9.618   6.429   1.100
   11DIO    C2542595   9.709   6.354   1.002
   11DIO    C2642596   9.747   6.214   1.048
   11DIO     H142597   8.027   6.490   1.167
   11DIO     H242598   8.068   6.057   1.085
   11DIO     H342599   8.245   6.196   0.912
   11DIO     H442600   8.496   6.224   0.902
   11DIO     H542601   8.496   6.415   1.295
   11DIO     H642602   9.105   6.396   0.883
   11DIO     H742603   9.117   6.613   1.264
   11DIO     H842604   9.273   6.636   0.999
   11DIO     H942605   9.310   6.272   1.043
   11DIO    H1042606   9.449   6.276   0.938
   11DIO    H1142607   9.508   6.264   1.186
   11DIO    H1242608   9.466   6.476   1.318
   11DIO    H1342609   9.319   6.391   1.272
   11DIO    H1442610   9.598   6.529   1.058
   11DIO    H1542611   9.675   6.446   1.192
   11DIO    H1642612   9.662   6.348   0.903
   11DIO    H1742613   9.801   6.413   0.988
   11DIO    H1842614   9.791   6.216   1.148
   11DIO    H1942615   9.661   6.147   1.049
   11DIO    H2042616   9.821   6.171   0.979
   12DIO     F142617   0.190   4.096   3.493
   12DIO     C142618   0.268   4.056   3.391
   12DIO     C242619   0.412   4.069   3.401
   12DIO     C342620   0.501   4.029   3.290
   12DIO     C442621   0.435   3.973   3.169
   12DIO     C542622   0.291   3.961   3.161
   12DIO     F242623   0.236   3.906   3.052
   12DIO     C642624   0.207   4.002   3.271
   12DIO     F342625   0.074   3.991   3.262
   12DIO     C742626   0.647   4.043   3.298
   12DIO     C842627   0.724   4.109   3.191
   12DIO     C942628   0.869   4.122   3.198
   12DIO    C1042629   0.942   4.061   3.308
   12DIO    C1142630   0.869   4.002   3.419
   12DIO    C1242631   0.725   3.991   3.412
   12DIO     F442632   0.660   3.931   3.514
   12DIO     O142633   1.074   4.098   3.322
   12DIO    C1342634   1.168   4.007   3.369
   12DIO     O242635   1.169   3.882   3.379
   12DIO    C1442636   1.297   4.070   3.398
   12DIO    C1542637   1.364   4.161   3.302
   12DIO     F542638   1.301   4.195   3.187
   12DIO    C1642639   1.495   4.219   3.326
   12DIO    C1742640   1.570   4.184   3.445
   12DIO    C1842641   1.502   4.109   3.550
   12DIO    C1942642   1.370   4.052   3.526
   12DIO     F642643   1.307   3.996   3.632
   12DIO    C2042644   1.711   4.234   3.467
   12DIO     O342645   1.781   4.264   3.345
   12DIO    C2142646   1.824   4.146   3.277
   12DIO    C2242647   1.913   4.061   3.367
   12DIO    C2342648   1.833   4.031   3.493
   12DIO     O442649   1.788   4.152   3.555
   12DIO    C2442650   2.046   4.131   3.404
   12DIO    C2542651   2.137   4.169   3.287
   12DIO    C2642652   2.175   4.052   3.198
   12DIO     H142653   0.455   4.109   3.492
   12DIO     H242654   0.496   3.933   3.089
   12DIO     H342655   0.673   4.154   3.106
   12DIO     H442656   0.924   4.178   3.124
   12DIO     H542657   0.924   3.961   3.503
   12DIO     H642658   1.533   4.291   3.255
   12DIO     H742659   1.544   4.099   3.649
   12DIO     H842660   1.701   4.331   3.518
   12DIO     H942661   1.738   4.089   3.243
   12DIO    H1042662   1.877   4.178   3.187
   12DIO    H1142663   1.936   3.966   3.317
   12DIO    H1242664   1.894   3.977   3.566
   12DIO    H1342665   1.746   3.967   3.470
   12DIO    H1442666   2.026   4.221   3.463
   12DIO    H1542667   2.103   4.064   3.470
   12DIO    H1642668   2.089   4.247   3.227
   12DIO    H1742669   2.229   4.214   3.328
   12DIO    H1842670   2.219   3.971   3.256
   12DIO    H1942671   2.089   4.013   3.143
   12DIO    H2042672   2.249   4.084   3.124
   13DIO     F142673   4.547   4.587   2.947
   13DIO     C142674   4.625   4.594   3.057
   13DIO     C242675   4.769   4.585   3.043
   13DIO     C342676   4.858   4.589   3.161
   13DIO     C442677   4.792   4.607   3.293
   13DIO     C542678   4.648   4.616   3.304
   13DIO     F242679   4.593   4.636   3.425
   13DIO     C642680   4.564   4.610   3.187
   13DIO     F342681   4.430   4.618   3.199
   13DIO     C742682   5.004   4.579   3.149
   13DIO     C842683   5.081   4.483   3.232
   13DIO     C942684   5.226   4.473   3.220
   13DIO    C1042685   5.299   4.565   3.134
   13DIO    C1142686   5.226   4.654   3.046
   13DIO    C1242687   5.082   4.662   3.055
   13DIO     F442688   5.017   4.750   2.976
   13DIO     O142689   5.431   4.534   3.110
   13DIO    C1342690   5.525   4.634   3.092
   13DIO     O242691   5.526   4.757   3.121
   13DIO    C1442692   5.654   4.583   3.045
   13DIO    C1542693   5.721   4.468   3.110
   13DIO     F542694   5.658   4.401   3.209
   13DIO    C1642695   5.851   4.419   3.070
   13DIO    C1742696   5.927   4.489   2.966
   13DIO    C1842697   5.858   4.592   2.889
   13DIO    C1942698   5.727   4.639   2.929
   13DIO     F642699   5.664   4.723   2.844
   13DIO    C2042700   6.068   4.447   2.931
   13DIO     O342701   6.138   4.382   3.038
   13DIO    C2142702   6.181   4.474   3.138
   13DIO    C2242703   6.270   4.582   3.078
   13DIO    C2342704   6.189   4.648   2.966
   13DIO     O442705   6.145   4.552   2.871
   13DIO    C2442706   6.403   4.527   3.021
   13DIO    C2542707   6.494   4.455   3.122
   13DIO    C2642708   6.532   4.540   3.242
   13DIO     H142709   4.812   4.574   2.944
   13DIO     H242710   4.853   4.621   3.382
   13DIO     H342711   5.030   4.416   3.298
   13DIO     H442712   5.281   4.398   3.275
   13DIO     H542713   5.280   4.718   2.978
   13DIO     H642714   5.890   4.329   3.116
   13DIO     H742715   5.901   4.631   2.798
   13DIO     H842716   6.058   4.370   2.853
   13DIO     H942717   6.095   4.518   3.188
   13DIO    H1042718   6.234   4.417   3.215
   13DIO    H1142719   6.293   4.657   3.154
   13DIO    H1242720   6.251   4.722   2.913
   13DIO    H1342721   6.103   4.703   3.007
   13DIO    H1442722   6.383   4.458   2.938
   13DIO    H1542723   6.459   4.611   2.978
   13DIO    H1642724   6.446   4.362   3.156
   13DIO    H1742725   6.585   4.425   3.069
   13DIO    H1842726   6.576   4.635   3.211
   13DIO    H1942727   6.446   4.561   3.305
   13DIO    H2042728   6.606   4.487   3.303
   14DIO     F142729   1.492   3.725   4.137
   14DIO     C142730   1.569   3.770   4.238
   14DIO     C242731   1.713   3.756   4.228
   14DIO     C342732   1.802   3.802   4.337
   14DIO     C442733   1.737   3.864   4.455
   14DIO     C542734   1.592   3.876   4.462
   14DIO     F242735   1.537   3.937   4.569
   14DIO     C642736   1.509   3.830   4.354
   14DIO     F342737   1.375   3.841   4.363
   14DIO     C742738   1.948   3.787   4.330
   14DIO     C842739   2.026   3.727   4.440
   14DIO     C942740   2.170   3.713   4.433
   14DIO    C1042741   2.243   3.769   4.320
   14DIO    C1142742   2.170   3.822   4.207
   14DIO    C1242743   2.026   3.833   4.213
   14DIO     F442744   1.961   3.888   4.108
   14DIO     O142745   2.375   3.731   4.309
   14DIO    C1342746   2.470   3.820   4.257
   14DIO     O242747   2.470   3.944   4.241
   14DIO    C1442748   2.599   3.755   4.231
   14DIO    C1542749   2.665   3.670   4.332
   14DIO     F542750   2.602   3.642   4.448
   14DIO    C1642751   2.796   3.610   4.311
   14DIO    C1742752   2.872   3.639   4.190
   14DIO    C1842753   2.803   3.709   4.082
   14DIO    C1942754   2.671   3.767   4.102
   14DIO     F642755   2.609   3.817   3.994
   14DIO    C2042756   3.012   3.588   4.171
   14DIO     O342757   3.082   3.565   4.294
   14DIO    C2142758   3.126   3.685   4.356
   14DIO    C2242759   3.215   3.766   4.262
   14DIO    C2342760   3.134   3.789   4.134
   14DIO     O442761   3.090   3.665   4.079
   14DIO    C2442762   3.347   3.694   4.228
   14DIO    C2542763   3.438   3.662   4.347
   14DIO    C2642764   3.476   3.783   4.430
   14DIO     H142765   1.756   3.711   4.139
   14DIO     H242766   1.797   3.908   4.533
   14DIO     H342767   1.974   3.687   4.527
   14DIO     H442768   2.225   3.662   4.510
   14DIO     H542769   2.225   3.858   4.120
   14DIO     H642770   2.834   3.542   4.386
   14DIO     H742771   2.846   3.713   3.982
   14DIO     H842772   3.003   3.489   4.125
   14DIO     H942773   3.039   3.744   4.387
   14DIO    H1042774   3.178   3.659   4.448
   14DIO    H1142775   3.237   3.863   4.307
   14DIO    H1242776   3.195   3.839   4.058
   14DIO    H1342777   3.048   3.854   4.154
   14DIO    H1442778   3.327   3.601   4.174
   14DIO    H1542779   3.404   3.758   4.158
   14DIO    H1642780   3.391   3.587   4.412
   14DIO    H1742781   3.530   3.615   4.309
   14DIO    H1842782   3.520   3.862   4.368
   14DIO    H1942783   3.390   3.825   4.482
   14DIO    H2042784   3.550   3.755   4.506
   15DIO     F142785   8.013   2.067   8.479
   15DIO     C142786   8.091   2.024   8.378
   15DIO     C242787   8.235   2.037   8.388
   15DIO     C342788   8.324   1.992   8.278
   15DIO     C442789   8.258   1.931   8.160
   15DIO     C542790   8.114   1.919   8.153
   15DIO     F242791   8.058   1.859   8.046
   15DIO     C642792   8.030   1.964   8.261
   15DIO     F342793   7.896   1.953   8.253
   15DIO     C742794   8.470   2.006   8.286
   15DIO     C842795   8.547   2.068   8.176
   15DIO     C942796   8.692   2.081   8.183
   15DIO    C1042797   8.764   2.025   8.295
   15DIO    C1142798   8.692   1.971   8.409
   15DIO    C1242799   8.548   1.960   8.402
   15DIO     F442800   8.483   1.904   8.507
   15DIO     O142801   8.897   2.062   8.307
   15DIO    C1342802   8.991   1.974   8.359
   15DIO     O242803   8.992   1.849   8.373
   15DIO    C1442804   9.120   2.038   8.385
   15DIO    C1542805   9.187   2.124   8.285
   15DIO     F542806   9.124   2.153   8.169
   15DIO    C1642807   9.317   2.183   8.306
   15DIO    C1742808   9.393   2.153   8.427
   15DIO    C1842809   9.324   2.083   8.535
   15DIO    C1942810   9.193   2.025   8.513
   15DIO     F642811   9.130   1.974   8.622
   15DIO    C2042812   9.534   2.205   8.446
   15DIO     O342813   9.604   2.229   8.323
   15DIO    C2142814   9.647   2.109   8.261
   15DIO    C2242815   9.736   2.028   8.354
   15DIO    C2342816   9.655   2.003   8.481
   15DIO     O442817   9.611   2.126   8.538
   15DIO    C2442818   9.869   2.099   8.389
   15DIO    C2542819   9.960   2.132   8.270
   15DIO    C2642820   9.998   2.011   8.186
   15DIO     H142821   8.277   2.081   8.477
   15DIO     H242822   8.319   1.888   8.081
   15DIO     H342823   8.496   2.109   8.090
   15DIO     H442824   8.747   2.134   8.106
   15DIO     H542825   8.746   1.934   8.495
   15DIO     H642826   9.355   2.253   8.232
   15DIO     H742827   9.367   2.077   8.634
   15DIO     H842828   9.524   2.303   8.493
   15DIO     H942829   9.561   2.050   8.229
   15DIO    H1042830   9.700   2.136   8.169
   15DIO    H1142831   9.759   1.931   8.308
   15DIO    H1242832   9.716   1.952   8.557
   15DIO    H1342833   9.569   1.938   8.461
   15DIO    H1442834   9.849   2.192   8.443
   15DIO    H1542835   9.925   2.034   8.457
   15DIO    H1642836   9.912   2.208   8.206
   15DIO    H1742837  10.051   2.178   8.308
   15DIO    H1842838  10.042   1.933   8.247
   15DIO    H1942839   9.911   1.970   8.133
   15DIO    H2042840  10.072   2.040   8.110
   16DIO     F142841   0.390   0.609   2.156
   16DIO     C142842   0.468   0.501   2.178
   16DIO     C242843   0.612   0.513   2.167
   16DIO     C342844   0.700   0.397   2.187
   16DIO     C442845   0.635   0.268   2.222
   16DIO     C542846   0.491   0.259   2.233
   16DIO     F242847   0.435   0.141   2.269
   16DIO     C642848   0.407   0.374   2.211
   16DIO     F342849   0.273   0.363   2.220
   16DIO     C742850   0.847   0.407   2.175
   16DIO     C842851   0.924   0.313   2.091
   16DIO     C942852   1.069   0.323   2.080
   16DIO    C1042853   1.141   0.420   2.159
   16DIO    C1142854   1.069   0.520   2.236
   16DIO    C1242855   0.925   0.511   2.246
   16DIO     F442856   0.860   0.601   2.322
   16DIO     O142857   1.273   0.440   2.125
   16DIO    C1342858   1.368   0.471   2.222
   16DIO     O242859   1.369   0.459   2.348
   16DIO    C1442860   1.497   0.511   2.165
   16DIO    C1542861   1.563   0.431   2.060
   16DIO     F542862   1.501   0.324   2.007
   16DIO    C1642863   1.694   0.464   2.007
   16DIO    C1742864   1.770   0.576   2.061
   16DIO    C1842865   1.701   0.667   2.153
   16DIO    C1942866   1.570   0.634   2.205
   16DIO     F642867   1.507   0.729   2.278
   16DIO    C2042868   1.911   0.606   2.015
   16DIO     O342869   1.980   0.491   1.966
   16DIO    C2142870   2.024   0.404   2.070
   16DIO    C2242871   2.113   0.478   2.169
   16DIO    C2342872   2.032   0.598   2.220
   16DIO     O442873   1.988   0.679   2.111
   16DIO    C2442874   2.246   0.527   2.107
   16DIO    C2542875   2.336   0.418   2.049
   16DIO    C2642876   2.375   0.310   2.149
   16DIO     H142877   0.654   0.610   2.142
   16DIO     H242878   0.696   0.182   2.248
   16DIO     H342879   0.872   0.237   2.033
   16DIO     H442880   1.124   0.259   2.012
   16DIO     H542881   1.123   0.596   2.290
   16DIO     H642882   1.732   0.407   1.923
   16DIO     H742883   1.744   0.762   2.180
   16DIO     H842884   1.901   0.673   1.929
   16DIO     H942885   1.937   0.361   2.120
   16DIO    H1042886   2.077   0.320   2.023
   16DIO    H1142887   2.135   0.413   2.254
   16DIO    H1242888   2.093   0.660   2.285
   16DIO    H1342889   1.946   0.564   2.279
   16DIO    H1442890   2.226   0.600   2.027
   16DIO    H1542891   2.302   0.581   2.184
   16DIO    H1642892   2.289   0.372   1.961
   16DIO    H1742893   2.428   0.466   2.012
   16DIO    H1842894   2.419   0.354   2.239
   16DIO    H1942895   2.288   0.250   2.178
   16DIO    H2042896   2.448   0.242   2.105
   17DIO     F142897   3.685   6.062   4.658
   17DIO     C142898   3.763   6.163   4.614
   17DIO     C242899   3.907   6.153   4.628
   17DIO     C342900   3.996   6.262   4.583
   17DIO     C442901   3.930   6.381   4.522
   17DIO     C542902   3.786   6.388   4.510
   17DIO     F242903   3.731   6.495   4.450
   17DIO     C642904   3.702   6.280   4.555
   17DIO     F342905   3.569   6.288   4.544
   17DIO     C742906   4.142   6.255   4.598
   17DIO     C842907   4.219   6.365   4.659
   17DIO     C942908   4.364   6.358   4.673
   17DIO    C1042909   4.437   6.245   4.616
   17DIO    C1142910   4.364   6.132   4.561
   17DIO    C1242911   4.220   6.138   4.551
   17DIO     F442912   4.155   6.034   4.495
   17DIO     O142913   4.569   6.233   4.653
   17DIO    C1342914   4.663   6.182   4.565
   17DIO     O242915   4.664   6.168   4.440
   17DIO    C1442916   4.792   6.156   4.629
   17DIO    C1542917   4.859   6.256   4.715
   17DIO     F542918   4.796   6.372   4.745
   17DIO    C1642919   4.990   6.234   4.774
   17DIO    C1742920   5.065   6.113   4.744
   17DIO    C1842921   4.997   6.006   4.674
   17DIO    C1942922   4.865   6.027   4.616
   17DIO     F642923   4.802   5.919   4.565
   17DIO    C2042924   5.206   6.094   4.796
   17DIO     O342925   5.276   6.217   4.820
   17DIO    C2142926   5.319   6.280   4.700
   17DIO    C2242927   5.408   6.187   4.619
   17DIO    C2342928   5.328   6.059   4.594
   17DIO     O442929   5.283   6.003   4.717
   17DIO    C2442930   5.541   6.152   4.690
   17DIO    C2542931   5.632   6.271   4.723
   17DIO    C2642932   5.670   6.355   4.603
   17DIO     H142933   3.950   6.063   4.672
   17DIO     H242934   3.991   6.459   4.479
   17DIO     H342935   4.168   6.451   4.700
   17DIO     H442936   4.419   6.434   4.725
   17DIO     H542937   4.419   6.046   4.524
   17DIO     H642938   5.028   6.308   4.844
   17DIO     H742939   5.039   5.907   4.668
   17DIO     H842940   5.196   6.047   4.894
   17DIO     H942941   5.233   6.312   4.641
   17DIO    H1042942   5.372   6.372   4.728
   17DIO    H1142943   5.431   6.233   4.522
   17DIO    H1242944   5.389   5.984   4.543
   17DIO    H1342945   5.241   6.079   4.529
   17DIO    H1442946   5.521   6.097   4.783
   17DIO    H1542947   5.598   6.083   4.625
   17DIO    H1642948   5.584   6.335   4.799
   17DIO    H1742949   5.724   6.232   4.769
   17DIO    H1842950   5.714   6.294   4.524
   17DIO    H1942951   5.584   6.408   4.561
   17DIO    H2042952   5.744   6.431   4.632
   18DIO     F142953   2.678   6.995   7.838
   18DIO     C142954   2.756   6.934   7.931
   18DIO     C242955   2.900   6.935   7.914
   18DIO     C342956   2.989   6.868   8.011
   18DIO     C442957   2.923   6.803   8.127
   18DIO     C542958   2.779   6.804   8.142
   18DIO     F242959   2.724   6.747   8.251
   18DIO     C642960   2.695   6.869   8.044
   18DIO     F342961   2.562   6.868   8.059
   18DIO     C742962   3.135   6.867   7.995
   18DIO     C842963   3.212   6.741   8.004
   18DIO     C942964   3.357   6.740   7.989
   18DIO    C1042965   3.430   6.864   7.975
   18DIO    C1142966   3.357   6.989   7.958
   18DIO    C1242967   3.213   6.990   7.970
   18DIO     F442968   3.148   7.108   7.960
   18DIO     O142969   3.562   6.854   7.937
   18DIO    C1342970   3.656   6.946   7.983
   18DIO     O242971   3.657   7.027   8.079
   18DIO    C1442972   3.786   6.932   7.914
   18DIO    C1542973   3.852   6.801   7.898
   18DIO     F542974   3.789   6.688   7.937
   18DIO    C1642975   3.983   6.787   7.836
   18DIO    C1742976   4.058   6.904   7.795
   18DIO    C1842977   3.990   7.033   7.795
   18DIO    C1942978   3.858   7.047   7.855
   18DIO     F642979   3.796   7.165   7.838
   18DIO    C2042980   4.199   6.892   7.742
   18DIO     O342981   4.269   6.776   7.789
   18DIO    C2142982   4.313   6.789   7.924
   18DIO    C2242983   4.401   6.912   7.940
   18DIO    C2342984   4.321   7.032   7.891
   18DIO     O442985   4.276   7.011   7.757
   18DIO    C2442986   4.534   6.902   7.862
   18DIO    C2542987   4.625   6.784   7.899
   18DIO    C2642988   4.663   6.780   8.046
   18DIO     H142989   2.943   6.986   7.828
   18DIO     H242990   2.984   6.761   8.207
   18DIO     H342991   3.161   6.647   8.017
   18DIO     H442992   3.412   6.647   7.987
   18DIO     H542993   3.412   7.081   7.942
   18DIO     H642994   4.021   6.687   7.819
   18DIO     H742995   4.033   7.119   7.745
   18DIO     H842996   4.189   6.877   7.633
   18DIO     H942997   4.226   6.795   7.990
   18DIO    H1042998   4.365   6.698   7.951
   18DIO    H1142999   4.424   6.927   8.047
   18DIO    H1243000   4.382   7.123   7.892
   18DIO    H1343001   4.235   7.051   7.956
   18DIO    H1443002   4.514   6.896   7.754
   18DIO    H1543003   4.591   6.995   7.878
   18DIO    H1643004   4.578   6.689   7.871
   18DIO    H1743005   4.717   6.791   7.839
   18DIO    H1843006   4.707   6.875   8.078
   18DIO    H1943007   4.577   6.759   8.110
   18DIO    H2043008   4.737   6.701   8.064
   19DIO     F143009   5.401   4.150   3.575
   19DIO     C143010   5.479   4.237   3.643
   19DIO     C243011   5.623   4.220   3.641
   19DIO     C343012   5.712   4.312   3.716
   19DIO     C443013   5.646   4.422   3.790
   19DIO     C543014   5.502   4.437   3.791
   19DIO     F243015   5.447   4.541   3.856
   19DIO     C643016   5.418   4.345   3.717
   19DIO     F343017   5.285   4.359   3.719
   19DIO     C743018   5.858   4.296   3.716
   19DIO     C843019   5.935   4.294   3.842
   19DIO     C943020   6.080   4.279   3.842
   19DIO    C1043021   6.153   4.275   3.716
   19DIO    C1143022   6.080   4.269   3.591
   19DIO    C1243023   5.936   4.281   3.591
   19DIO     F443024   5.871   4.281   3.473
   19DIO     O143025   6.285   4.237   3.723
   19DIO    C1343026   6.379   4.290   3.636
   19DIO     O243027   6.380   4.393   3.563
   19DIO    C1443028   6.509   4.221   3.644
   19DIO    C1543029   6.575   4.193   3.773
   19DIO     F543030   6.512   4.223   3.889
   19DIO    C1643031   6.706   4.131   3.782
   19DIO    C1743032   6.781   4.099   3.662
   19DIO    C1843033   6.713   4.110   3.534
   19DIO    C1943034   6.581   4.171   3.525
   19DIO     F643035   6.519   4.164   3.405
   19DIO    C2043036   6.922   4.045   3.670
   19DIO     O343037   6.992   4.083   3.789
   19DIO    C2143038   7.036   4.218   3.787
   19DIO    C2243039   7.124   4.245   3.666
   19DIO    C2343040   7.044   4.205   3.542
   19DIO     O443041   6.999   4.070   3.552
   19DIO    C2443042   7.257   4.166   3.670
   19DIO    C2543043   7.348   4.193   3.790
   19DIO    C2643044   7.386   4.340   3.806
   19DIO     H143045   5.666   4.139   3.583
   19DIO     H243046   5.707   4.498   3.838
   19DIO     H343047   5.884   4.300   3.937
   19DIO     H443048   6.135   4.270   3.934
   19DIO     H543049   6.135   4.260   3.498
   19DIO     H643050   6.744   4.106   3.881
   19DIO     H743051   6.756   4.067   3.444
   19DIO     H843052   6.912   3.936   3.675
   19DIO     H943053   6.949   4.285   3.787
   19DIO    H1043054   7.088   4.238   3.881
   19DIO    H1143055   7.147   4.352   3.660
   19DIO    H1243056   7.105   4.214   3.452
   19DIO    H1343057   6.958   4.272   3.529
   19DIO    H1443058   7.237   4.058   3.666
   19DIO    H1543059   7.314   4.189   3.578
   19DIO    H1643060   7.301   4.157   3.882
   19DIO    H1743061   7.440   4.134   3.778
   19DIO    H1843062   7.430   4.379   3.714
   19DIO    H1943063   7.300   4.401   3.833
   19DIO    H2043064   7.460   4.350   3.887
   20DIO     F143065   7.389   7.229   0.718
   20DIO     C143066   7.467   7.122   0.739
   20DIO     C243067   7.611   7.134   0.728
   20DIO     C343068   7.700   7.018   0.749
   20DIO     C443069   7.634   6.889   0.784
   20DIO     C543070   7.490   6.880   0.795
   20DIO     F243071   7.435   6.762   0.831
   20DIO     C643072   7.406   6.995   0.773
   20DIO     F343073   7.273   6.984   0.782
   20DIO     C743074   7.846   7.028   0.737
   20DIO     C843075   7.923   6.933   0.654
   20DIO     C943076   8.068   6.943   0.642
   20DIO    C1043077   8.141   7.041   0.721
   20DIO    C1143078   8.068   7.141   0.798
   20DIO    C1243079   7.924   7.132   0.807
   20DIO     F443080   7.859   7.223   0.883
   20DIO     O143081   8.273   7.061   0.687
   20DIO    C1343082   8.367   7.092   0.784
   20DIO     O243083   8.368   7.081   0.909
   20DIO    C1443084   8.496   7.132   0.727
   20DIO    C1543085   8.563   7.051   0.622
   20DIO     F543086   8.500   6.944   0.569
   20DIO    C1643087   8.694   7.085   0.568
   20DIO    C1743088   8.769   7.197   0.623
   20DIO    C1843089   8.701   7.287   0.714
   20DIO    C1943090   8.569   7.254   0.766
   20DIO     F643091   8.506   7.350   0.839
   20DIO    C2043092   8.910   7.226   0.576
   20DIO     O343093   8.980   7.111   0.527
   20DIO    C2143094   9.023   7.025   0.631
   20DIO    C2243095   9.112   7.099   0.731
   20DIO    C2343096   9.032   7.219   0.781
   20DIO     O443097   8.987   7.299   0.672
   20DIO    C2443098   9.245   7.148   0.668
   20DIO    C2543099   9.336   7.038   0.611
   20DIO    C2643100   9.374   6.931   0.711
   20DIO     H143101   7.654   7.231   0.704
   20DIO     H243102   7.695   6.803   0.810
   20DIO     H343103   7.872   6.858   0.596
   20DIO     H443104   8.123   6.879   0.575
   20DIO     H543105   8.123   7.217   0.852
   20DIO     H643106   8.732   7.027   0.485
   20DIO     H743107   8.743   7.383   0.740
   20DIO     H843108   8.900   7.293   0.490
   20DIO     H943109   8.937   6.981   0.682
   20DIO    H1043110   9.076   6.941   0.585
   20DIO    H1143111   9.135   7.034   0.815
   20DIO    H1243112   9.093   7.282   0.846
   20DIO    H1343113   8.945   7.185   0.840
   20DIO    H1443114   9.225   7.220   0.589
   20DIO    H1543115   9.302   7.202   0.745
   20DIO    H1643116   9.288   6.992   0.523
   20DIO    H1743117   9.428   7.086   0.574
   20DIO    H1843118   9.418   6.975   0.801
   20DIO    H1943119   9.288   6.871   0.740
   20DIO    H2043120   9.448   6.863   0.667
   21DIO     F143121   0.488   2.100   4.815
   21DIO     C143122   0.565   2.160   4.723
   21DIO     C243123   0.709   2.160   4.740
   21DIO     C343124   0.798   2.226   4.642
   21DIO     C443125   0.733   2.291   4.526
   21DIO     C543126   0.588   2.290   4.511
   21DIO     F243127   0.533   2.347   4.402
   21DIO     C643128   0.505   2.225   4.609
   21DIO     F343129   0.371   2.226   4.594
   21DIO     C743130   0.945   2.228   4.658
   21DIO     C843131   1.022   2.354   4.648
   21DIO     C943132   1.166   2.355   4.664
   21DIO    C1043133   1.239   2.230   4.678
   21DIO    C1143134   1.166   2.105   4.695
   21DIO    C1243135   1.022   2.105   4.683
   21DIO     F443136   0.957   1.987   4.694
   21DIO     O143137   1.371   2.241   4.716
   21DIO    C1343138   1.466   2.149   4.670
   21DIO     O243139   1.467   2.068   4.574
   21DIO    C1443140   1.595   2.162   4.739
   21DIO    C1543141   1.661   2.294   4.755
   21DIO     F543142   1.598   2.407   4.716
   21DIO    C1643143   1.792   2.308   4.816
   21DIO    C1743144   1.868   2.191   4.858
   21DIO    C1843145   1.799   2.062   4.859
   21DIO    C1943146   1.667   2.048   4.799
   21DIO     F643147   1.605   1.930   4.816
   21DIO    C2043148   2.008   2.203   4.911
   21DIO     O343149   2.078   2.319   4.864
   21DIO    C2143150   2.122   2.305   4.729
   21DIO    C2243151   2.211   2.183   4.713
   21DIO    C2343152   2.130   2.063   4.763
   21DIO     O443153   2.086   2.084   4.896
   21DIO    C2443154   2.343   2.193   4.791
   21DIO    C2543155   2.434   2.311   4.754
   21DIO    C2643156   2.473   2.314   4.606
   21DIO     H143157   0.752   2.109   4.826
   21DIO     H243158   0.793   2.333   4.446
   21DIO     H343159   0.970   2.448   4.635
   21DIO     H443160   1.221   2.448   4.665
   21DIO     H543161   1.221   2.013   4.712
   21DIO     H643162   1.830   2.408   4.833
   21DIO     H743163   1.842   1.976   4.909
   21DIO     H843164   1.999   2.218   5.020
   21DIO     H943165   2.035   2.299   4.663
   21DIO    H1043166   2.175   2.397   4.702
   21DIO    H1143167   2.233   2.168   4.607
   21DIO    H1243168   2.191   1.972   4.762
   21DIO    H1343169   2.044   2.044   4.697
   21DIO    H1443170   2.324   2.199   4.899
   21DIO    H1543171   2.400   2.100   4.776
   21DIO    H1643172   2.387   2.405   4.781
   21DIO    H1743173   2.526   2.304   4.813
   21DIO    H1843174   2.516   2.219   4.575
   21DIO    H1943175   2.386   2.336   4.543
   21DIO    H2043176   2.546   2.393   4.589
   22DIO     F143177   4.697   0.762   5.960
   22DIO     C143178   4.775   0.657   5.926
   22DIO     C243179   4.919   0.673   5.923
   22DIO     C343180   5.008   0.561   5.884
   22DIO     C443181   4.942   0.432   5.852
   22DIO     C543182   4.798   0.418   5.857
   22DIO     F243183   4.742   0.298   5.831
   22DIO     C643184   4.714   0.530   5.894
   22DIO     F343185   4.580   0.516   5.897
   22DIO     C743186   5.154   0.576   5.878
   22DIO     C843187   5.231   0.534   5.759
   22DIO     C943188   5.376   0.549   5.754
   22DIO    C1043189   5.448   0.596   5.871
   22DIO    C1143190   5.376   0.645   5.987
   22DIO    C1243191   5.232   0.633   5.991
   22DIO     F443192   5.167   0.674   6.101
   22DIO     O143193   5.581   0.629   5.851
   22DIO    C1343194   5.675   0.609   5.951
   22DIO     O243195   5.676   0.538   6.055
   22DIO    C1443196   5.804   0.672   5.920
   22DIO    C1543197   5.871   0.653   5.789
   22DIO     F543198   5.808   0.585   5.691
   22DIO    C1643199   6.001   0.708   5.759
   22DIO    C1743200   6.077   0.779   5.861
   22DIO    C1843201   6.008   0.814   5.985
   22DIO    C1943202   5.877   0.760   6.014
   22DIO     F643203   5.814   0.807   6.124
   22DIO    C2043204   6.218   0.828   5.835
   22DIO     O343205   6.288   0.751   5.736
   22DIO    C2143206   6.331   0.625   5.785
   22DIO    C2243207   6.420   0.641   5.908
   22DIO    C2343208   6.339   0.721   6.010
   22DIO     O443209   6.295   0.845   5.955
   22DIO    C2443210   6.553   0.714   5.877
   22DIO    C2543211   6.644   0.647   5.773
   22DIO    C2643212   6.682   0.504   5.808
   22DIO     H143213   4.961   0.770   5.949
   22DIO     H243214   5.003   0.344   5.833
   22DIO     H343215   5.180   0.497   5.672
   22DIO     H443216   5.431   0.526   5.664
   22DIO     H543217   5.430   0.685   6.071
   22DIO     H643218   6.039   0.698   5.658
   22DIO     H743219   6.051   0.885   6.055
   22DIO     H843220   6.208   0.928   5.792
   22DIO     H943221   6.245   0.562   5.808
   22DIO    H1043222   6.384   0.574   5.704
   22DIO    H1143223   6.443   0.543   5.950
   22DIO    H1243224   6.400   0.744   6.098
   22DIO    H1343225   6.253   0.663   6.045
   22DIO    H1443226   6.533   0.817   5.843
   22DIO    H1543227   6.609   0.724   5.971
   22DIO    H1643228   6.596   0.649   5.674
   22DIO    H1743229   6.735   0.707   5.764
   22DIO    H1843230   6.726   0.499   5.908
   22DIO    H1943231   6.595   0.437   5.805
   22DIO    H2043232   6.756   0.467   5.737
   23DIO     F143233   7.087   6.495   6.697
   23DIO     C143234   7.164   6.415   6.772
   23DIO     C243235   7.308   6.420   6.755
   23DIO     C343236   7.397   6.331   6.834
   23DIO     C443237   7.332   6.240   6.931
   23DIO     C543238   7.187   6.238   6.946
   23DIO     F243239   7.132   6.156   7.038
   23DIO     C643240   7.104   6.325   6.867
   23DIO     F343241   6.970   6.320   6.880
   23DIO     C743242   7.543   6.334   6.818
   23DIO     C843243   7.621   6.209   6.797
   23DIO     C943244   7.765   6.212   6.782
   23DIO    C1043245   7.838   6.336   6.798
   23DIO    C1143246   7.765   6.461   6.811
   23DIO    C1243247   7.621   6.459   6.824
   23DIO     F443248   7.556   6.576   6.841
   23DIO     O143249   7.970   6.335   6.759
   23DIO    C1343250   8.065   6.413   6.825
   23DIO     O243251   8.065   6.469   6.938
   23DIO    C1443252   8.194   6.417   6.755
   23DIO    C1543253   8.260   6.293   6.708
   23DIO     F543254   8.197   6.174   6.719
   23DIO    C1643255   8.391   6.294   6.645
   23DIO    C1743256   8.467   6.418   6.633
   23DIO    C1843257   8.398   6.543   6.663
   23DIO    C1943258   8.266   6.542   6.725
   23DIO     F643259   8.204   6.661   6.737
   23DIO    C2043260   8.607   6.419   6.578
   23DIO     O343261   8.677   6.295   6.596
   23DIO    C2143262   8.721   6.276   6.730
   23DIO    C2243263   8.810   6.391   6.776
   23DIO    C2343264   8.729   6.519   6.756
   23DIO     O443265   8.685   6.531   6.621
   23DIO    C2443266   8.942   6.400   6.697
   23DIO    C2543267   9.033   6.276   6.705
   23DIO    C2643268   9.071   6.237   6.847
   23DIO     H143269   7.351   6.489   6.684
   23DIO     H243270   7.392   6.181   6.999
   23DIO     H343271   7.569   6.115   6.787
   23DIO     H443272   7.820   6.122   6.758
   23DIO     H543273   7.820   6.555   6.817
   23DIO     H643274   8.429   6.201   6.604
   23DIO     H743275   8.441   6.638   6.636
   23DIO     H843276   8.598   6.430   6.469
   23DIO     H943277   8.634   6.265   6.796
   23DIO    H1043278   8.773   6.180   6.735
   23DIO    H1143279   8.832   6.380   6.882
   23DIO    H1243280   8.790   6.607   6.779
   23DIO    H1343281   8.643   6.522   6.824
   23DIO    H1443282   8.922   6.420   6.591
   23DIO    H1543283   8.999   6.486   6.735
   23DIO    H1643284   8.986   6.191   6.655
   23DIO    H1743285   9.125   6.298   6.649
   23DIO    H1843286   9.115   6.322   6.901
   23DIO    H1943287   8.985   6.201   6.904
   23DIO    H2043288   9.145   6.156   6.845
   24DIO     F143289   1.178   7.486   1.943
   24DIO     C143290   1.256   7.380   1.913
   24DIO     C243291   1.400   7.397   1.908
   24DIO     C343292   1.489   7.284   1.873
   24DIO     C443293   1.423   7.154   1.845
   24DIO     C543294   1.279   7.140   1.850
   24DIO     F243295   1.224   7.019   1.828
   24DIO     C643296   1.195   7.252   1.884
   24DIO     F343297   1.061   7.239   1.887
   24DIO     C743298   1.635   7.299   1.867
   24DIO     C843299   1.712   7.253   1.749
   24DIO     C943300   1.857   7.267   1.744
   24DIO    C1043301   1.930   7.318   1.859
   24DIO    C1143302   1.857   7.370   1.973
   24DIO    C1243303   1.713   7.358   1.978
   24DIO     F443304   1.648   7.403   2.087
   24DIO     O143305   2.062   7.351   1.838
   24DIO    C1343306   2.156   7.334   1.939
   24DIO     O243307   2.157   7.265   2.044
   24DIO    C1443308   2.285   7.395   1.906
   24DIO    C1543309   2.352   7.373   1.776
   24DIO     F543310   2.289   7.302   1.679
   24DIO    C1643311   2.482   7.427   1.744
   24DIO    C1743312   2.558   7.501   1.844
   24DIO    C1843313   2.489   7.539   1.967
   24DIO    C1943314   2.358   7.486   1.998
   24DIO     F643315   2.295   7.537   2.106
   24DIO    C2043316   2.699   7.548   1.817
   24DIO     O343317   2.769   7.469   1.720
   24DIO    C2143318   2.812   7.344   1.772
   24DIO    C2243319   2.901   7.364   1.894
   24DIO    C2343320   2.820   7.447   1.994
   24DIO     O443321   2.776   7.569   1.935
   24DIO    C2443322   3.034   7.436   1.862
   24DIO    C2543323   3.125   7.366   1.760
   24DIO    C2643324   3.163   7.224   1.799
   24DIO     H143325   1.443   7.494   1.932
   24DIO     H243326   1.484   7.065   1.828
   24DIO     H343327   1.661   7.213   1.663
   24DIO     H443328   1.912   7.242   1.654
   24DIO     H543329   1.911   7.413   2.056
   24DIO     H643330   2.521   7.414   1.643
   24DIO     H743331   2.532   7.612   2.035
   24DIO     H843332   2.689   7.648   1.771
   24DIO     H943333   2.726   7.282   1.797
   24DIO    H1043334   2.865   7.291   1.692
   24DIO    H1143335   2.924   7.267   1.939
   24DIO    H1243336   2.882   7.473   2.082
   24DIO    H1343337   2.734   7.390   2.032
   24DIO    H1443338   3.014   7.538   1.825
   24DIO    H1543339   3.090   7.448   1.955
   24DIO    H1643340   3.077   7.365   1.661
   24DIO    H1743341   3.216   7.426   1.749
   24DIO    H1843342   3.207   7.222   1.899
   24DIO    H1943343   3.077   7.157   1.797
   24DIO    H2043344   3.237   7.185   1.729
   25DIO     F143345   1.872   7.574   9.197
   25DIO     C143346   1.949   7.674   9.152
   25DIO     C243347   2.093   7.664   9.166
   25DIO     C343348   2.182   7.774   9.121
   25DIO     C443349   2.117   7.892   9.059
   25DIO     C543350   1.972   7.899   9.047
   25DIO     F243351   1.917   8.006   8.986
   25DIO     C643352   1.889   7.791   9.092
   25DIO     F343353   1.755   7.800   9.081
   25DIO     C743354   2.329   7.766   9.135
   25DIO     C843355   2.406   7.877   9.196
   25DIO     C943356   2.550   7.870   9.210
   25DIO    C1043357   2.623   7.757   9.153
   25DIO    C1143358   2.551   7.643   9.099
   25DIO    C1243359   2.406   7.650   9.088
   25DIO     F443360   2.342   7.545   9.033
   25DIO     O143361   2.755   7.745   9.191
   25DIO    C1343362   2.850   7.694   9.102
   25DIO     O243363   2.851   7.678   8.977
   25DIO    C1443364   2.979   7.667   9.167
   25DIO    C1543365   3.045   7.768   9.253
   25DIO     F543366   2.983   7.884   9.281
   25DIO    C1643367   3.176   7.747   9.312
   25DIO    C1743368   3.252   7.626   9.282
   25DIO    C1843369   3.183   7.518   9.212
   25DIO    C1943370   3.051   7.539   9.155
   25DIO     F643371   2.989   7.430   9.104
   25DIO    C2043372   3.392   7.607   9.334
   25DIO     O343373   3.462   7.730   9.357
   25DIO    C2143374   3.506   7.792   9.237
   25DIO    C2243375   3.595   7.698   9.156
   25DIO    C2343376   3.514   7.571   9.132
   25DIO     O443377   3.470   7.515   9.256
   25DIO    C2443378   3.728   7.664   9.227
   25DIO    C2543379   3.818   7.783   9.261
   25DIO    C2643380   3.857   7.867   9.140
   25DIO     H143381   2.136   7.575   9.210
   25DIO     H243382   2.177   7.970   9.015
   25DIO     H343383   2.354   7.963   9.237
   25DIO     H443384   2.606   7.946   9.262
   25DIO     H543385   2.605   7.557   9.063
   25DIO     H643386   3.214   7.821   9.381
   25DIO     H743387   3.226   7.419   9.207
   25DIO     H843388   3.383   7.560   9.433
   25DIO     H943389   3.419   7.824   9.178
   25DIO    H1043390   3.559   7.884   9.264
   25DIO    H1143391   3.617   7.744   9.059
   25DIO    H1243392   3.575   7.495   9.082
   25DIO    H1343393   3.428   7.591   9.067
   25DIO    H1443394   3.708   7.610   9.321
   25DIO    H1543395   3.784   7.595   9.164
   25DIO    H1643396   3.771   7.847   9.336
   25DIO    H1743397   3.910   7.744   9.307
   25DIO    H1843398   3.901   7.805   9.061
   25DIO    H1943399   3.770   7.919   9.098
   25DIO    H2043400   3.930   7.942   9.168
   26DIO     F143401   5.675   2.588   1.420
   26DIO     C143402   5.753   2.481   1.394
   26DIO     C243403   5.897   2.497   1.389
   26DIO     C343404   5.986   2.383   1.359
   26DIO     C443405   5.920   2.252   1.337
   26DIO     C543406   5.776   2.238   1.342
   26DIO     F243407   5.721   2.116   1.325
   26DIO     C643408   5.692   2.352   1.371
   26DIO     F343409   5.559   2.338   1.375
   26DIO     C743410   6.132   2.397   1.352
   26DIO     C843411   6.209   2.346   1.237
   26DIO     C943412   6.354   2.360   1.230
   26DIO    C1043413   6.427   2.416   1.343
   26DIO    C1143414   6.354   2.473   1.455
   26DIO    C1243415   6.210   2.462   1.460
   26DIO     F443416   6.145   2.511   1.567
   26DIO     O143417   6.559   2.448   1.321
   26DIO    C1343418   6.653   2.435   1.422
   26DIO     O243419   6.654   2.372   1.531
   26DIO    C1443420   6.782   2.495   1.387
   26DIO    C1543421   6.849   2.467   1.257
   26DIO     F543422   6.786   2.392   1.164
   26DIO    C1643423   6.980   2.520   1.223
   26DIO    C1743424   7.055   2.598   1.320
   26DIO    C1843425   6.987   2.642   1.441
   26DIO    C1943426   6.855   2.590   1.474
   26DIO     F643427   6.792   2.646   1.580
   26DIO    C2043428   7.196   2.645   1.290
   26DIO     O343429   7.266   2.561   1.197
   26DIO    C2143430   7.309   2.439   1.255
   26DIO    C2243431   7.398   2.464   1.376
   26DIO    C2343432   7.318   2.551   1.473
   26DIO     O443433   7.273   2.670   1.408
   26DIO    C2443434   7.531   2.534   1.341
   26DIO    C2543435   7.622   2.460   1.242
   26DIO    C2643436   7.660   2.320   1.288
   26DIO     H143437   5.940   2.595   1.408
   26DIO     H243438   5.981   2.162   1.324
   26DIO     H343439   6.158   2.302   1.152
   26DIO     H443440   6.409   2.331   1.142
   26DIO     H543441   6.409   2.520   1.536
   26DIO     H643442   7.018   2.502   1.123
   26DIO     H743443   7.029   2.718   1.505
   26DIO     H843444   7.186   2.742   1.240
   26DIO     H943445   7.223   2.378   1.283
   26DIO    H1043446   7.362   2.382   1.178
   26DIO    H1143447   7.421   2.369   1.426
   26DIO    H1243448   7.379   2.581   1.559
   26DIO    H1343449   7.231   2.496   1.512
   26DIO    H1443450   7.511   2.634   1.299
   26DIO    H1543451   7.588   2.551   1.433
   26DIO    H1643452   7.574   2.455   1.143
   26DIO    H1743453   7.714   2.519   1.229
   26DIO    H1843454   7.704   2.322   1.388
   26DIO    H1943455   7.574   2.253   1.289
   26DIO    H2043456   7.734   2.277   1.219
   27DIO     F143457   3.638   5.123   8.329
   27DIO     C143458   3.716   5.032   8.267
   27DIO     C243459   3.860   5.049   8.268
   27DIO     C343460   3.949   4.953   8.198
   27DIO     C443461   3.883   4.839   8.130
   27DIO     C543462   3.739   4.825   8.131
   27DIO     F243463   3.683   4.717   8.071
   27DIO     C643464   3.655   4.920   8.199
   27DIO     F343465   3.521   4.906   8.197
   27DIO     C743466   4.095   4.969   8.198
   27DIO     C843467   4.172   4.964   8.071
   27DIO     C943468   4.317   4.979   8.070
   27DIO    C1043469   4.389   4.990   8.196
   27DIO    C1143470   4.317   5.003   8.321
   27DIO    C1243471   4.173   4.991   8.321
   27DIO     F443472   4.108   4.998   8.439
   27DIO     O143473   4.522   5.028   8.186
   27DIO    C1343474   4.616   4.980   8.276
   27DIO     O243475   4.617   4.881   8.355
   27DIO    C1443476   4.745   5.048   8.265
   27DIO    C1543477   4.812   5.069   8.134
   27DIO     F543478   4.749   5.032   8.020
   27DIO    C1643479   4.942   5.130   8.121
   27DIO    C1743480   5.018   5.169   8.240
   27DIO    C1843481   4.949   5.165   8.369
   27DIO    C1943482   4.818   5.105   8.381
   27DIO     F643483   4.755   5.119   8.500
   27DIO    C2043484   5.159   5.222   8.229
   27DIO     O343485   5.229   5.178   8.112
   27DIO    C2143486   5.272   5.043   8.122
   27DIO    C2243487   5.361   5.023   8.244
   27DIO    C2343488   5.280   5.070   8.365
   27DIO     O443489   5.236   5.204   8.348
   27DIO    C2443490   5.494   5.102   8.236
   27DIO    C2543491   5.585   5.068   8.117
   27DIO    C2643492   5.623   4.921   8.109
   27DIO     H143493   3.902   5.134   8.321
   27DIO     H243494   3.944   4.761   8.086
   27DIO     H343495   4.121   4.953   7.977
   27DIO     H443496   4.372   4.983   7.978
   27DIO     H543497   4.371   5.017   8.413
   27DIO     H643498   4.980   5.150   8.022
   27DIO     H743499   4.992   5.213   8.456
   27DIO     H843500   5.149   5.331   8.217
   27DIO     H943501   5.186   4.976   8.126
   27DIO    H1043502   5.325   5.018   8.029
   27DIO    H1143503   5.384   4.917   8.256
   27DIO    H1243504   5.341   5.066   8.456
   27DIO    H1343505   5.194   5.004   8.383
   27DIO    H1443506   5.474   5.210   8.233
   27DIO    H1543507   5.550   5.083   8.328
   27DIO    H1643508   5.537   5.098   8.023
   27DIO    H1743509   5.676   5.127   8.126
   27DIO    H1843510   5.667   4.886   8.204
   27DIO    H1943511   5.536   4.858   8.086
   27DIO    H2043512   5.697   4.905   8.030
   28DIO     F143513   7.796   5.077   3.677
   28DIO     C143514   7.873   5.187   3.686
   28DIO     C243515   8.017   5.172   3.694
   28DIO     C343516   8.106   5.290   3.706
   28DIO     C443517   8.041   5.422   3.708
   28DIO     C543518   7.896   5.435   3.700
   28DIO     F243519   7.841   5.558   3.698
   28DIO     C643520   7.813   5.318   3.689
   28DIO     F343521   7.679   5.331   3.683
   28DIO     C743522   8.252   5.276   3.715
   28DIO     C843523   8.330   5.344   3.821
   28DIO     C943524   8.474   5.331   3.829
   28DIO    C1043525   8.547   5.259   3.727
   28DIO    C1143526   8.474   5.185   3.625
   28DIO    C1243527   8.330   5.196   3.618
   28DIO     F443528   8.265   5.130   3.520
   28DIO     O143529   8.679   5.231   3.754
   28DIO    C1343530   8.774   5.228   3.652
   28DIO     O243531   8.774   5.274   3.534
   28DIO    C1443532   8.903   5.174   3.696
   28DIO    C1543533   8.969   5.222   3.819
   28DIO     F543534   8.906   5.310   3.900
   28DIO    C1643535   9.100   5.175   3.861
   28DIO    C1743536   9.176   5.082   3.777
   28DIO    C1843537   9.107   5.021   3.664
   28DIO    C1943538   8.975   5.067   3.624
   28DIO     F643539   8.913   4.996   3.527
   28DIO    C2043540   9.316   5.041   3.814
   28DIO     O343541   9.386   5.138   3.893
   28DIO    C2143542   9.430   5.250   3.817
   28DIO    C2243543   9.519   5.206   3.701
   28DIO    C2343544   9.438   5.105   3.619
   28DIO     O443545   9.394   4.998   3.701
   28DIO    C2443546   9.651   5.142   3.747
   28DIO    C2543547   9.742   5.231   3.833
   28DIO    C2643548   9.780   5.362   3.767
   28DIO     H143549   8.060   5.072   3.690
   28DIO     H243550   8.101   5.512   3.707
   28DIO     H343551   8.278   5.400   3.898
   28DIO     H443552   8.529   5.374   3.912
   28DIO     H543553   8.529   5.127   3.552
   28DIO     H643554   9.138   5.207   3.957
   28DIO     H743555   9.150   4.936   3.613
   28DIO     H843556   9.307   4.953   3.878
   28DIO     H943557   9.343   5.306   3.780
   28DIO    H1043558   9.482   5.318   3.885
   28DIO    H1143559   9.541   5.293   3.638
   28DIO    H1243560   9.499   5.063   3.539
   28DIO    H1343561   9.352   5.154   3.572
   28DIO    H1443562   9.631   5.050   3.804
   28DIO    H1543563   9.708   5.112   3.658
   28DIO    H1643564   9.695   5.252   3.930
   28DIO    H1743565   9.834   5.175   3.855
   28DIO    H1843566   9.824   5.345   3.668
   28DIO    H1943567   9.694   5.428   3.755
   28DIO    H2043568   9.854   5.415   3.828
   29DIO     F143569   4.170   2.401   9.858
   29DIO     C143570   4.247   2.292   9.872
   29DIO     C243571   4.392   2.305   9.862
   29DIO     C343572   4.480   2.187   9.875
   29DIO     C443573   4.415   2.057   9.902
   29DIO     C543574   4.271   2.046   9.912
   29DIO     F243575   4.215   1.927   9.941
   29DIO     C643576   4.187   2.163   9.898
   29DIO     F343577   4.053   2.152   9.906
   29DIO     C743578   4.627   2.199   9.864
   29DIO     C843579   4.704   2.109   9.774
   29DIO     C943580   4.849   2.120   9.764
   29DIO    C1043581   4.921   2.213   9.848
   29DIO    C1143582   4.849   2.307   9.932
   29DIO    C1243583   4.705   2.298   9.941
   29DIO     F443584   4.640   2.383  10.023
   29DIO     O143585   5.053   2.234   9.816
   29DIO    C1343586   5.148   2.259   9.915
   29DIO     O243587   5.149   2.240  10.039
   29DIO    C1443588   5.277   2.302   9.860
   29DIO    C1543589   5.343   2.229   9.750
   29DIO     F543590   5.281   2.126   9.691
   29DIO    C1643591   5.474   2.266   9.699
   29DIO    C1743592   5.550   2.374   9.761
   29DIO    C1843593   5.481   2.459   9.858
   29DIO    C1943594   5.349   2.423   9.908
   29DIO     F643595   5.287   2.513   9.986
   29DIO    C2043596   5.691   2.407   9.717
   29DIO     O343597   5.760   2.295   9.660
   29DIO    C2143598   5.804   2.202   9.758
   29DIO    C2243599   5.893   2.270   9.862
   29DIO    C2343600   5.812   2.386   9.920
   29DIO     O443601   5.768   2.473   9.817
   29DIO    C2443602   6.026   2.322   9.803
   29DIO    C2543603   6.116   2.217   9.738
   29DIO    C2643604   6.155   2.103   9.832
   29DIO     H143605   4.434   2.403   9.844
   29DIO     H243606   4.475   1.969   9.922
   29DIO     H343607   4.652   2.038   9.712
   29DIO     H443608   4.904   2.060   9.692
   29DIO     H543609   4.903   2.379   9.991
   29DIO     H643610   5.512   2.214   9.612
   29DIO     H743611   5.524   2.553   9.890
   29DIO     H843612   5.681   2.479   9.635
   29DIO     H943613   5.717   2.155   9.806
   29DIO    H1043614   5.857   2.121   9.707
   29DIO    H1143615   5.915   2.199   9.942
   29DIO    H1243616   5.873   2.444   9.990
   29DIO    H1343617   5.726   2.349   9.977
   29DIO    H1443618   6.006   2.400   9.728
   29DIO    H1543619   6.082   2.371   9.884
   29DIO    H1643620   6.069   2.176   9.648
   29DIO    H1743621   6.208   2.267   9.705
   29DIO    H1843622   6.199   2.141   9.924
   29DIO    H1943623   6.068   2.041   9.857
   29DIO    H2043624   6.228   2.038   9.783
   30DIO     F143625   5.099   0.529   3.105
   30DIO     C143626   5.177   0.421   3.126
   30DIO     C243627   5.321   0.433   3.115
   30DIO     C343628   5.410   0.317   3.135
   30DIO     C443629   5.344   0.188   3.169
   30DIO     C543630   5.200   0.178   3.180
   30DIO     F243631   5.144   0.060   3.215
   30DIO     C643632   5.116   0.294   3.159
   30DIO     F343633   4.982   0.283   3.168
   30DIO     C743634   5.556   0.327   3.123
   30DIO     C843635   5.633   0.233   3.039
   30DIO     C943636   5.778   0.243   3.027
   30DIO    C1043637   5.850   0.340   3.107
   30DIO    C1143638   5.778   0.439   3.184
   30DIO    C1243639   5.634   0.431   3.194
   30DIO     F443640   5.569   0.520   3.271
   30DIO     O143641   5.983   0.360   3.073
   30DIO    C1343642   6.077   0.391   3.170
   30DIO     O243643   6.078   0.378   3.296
   30DIO    C1443644   6.206   0.431   3.113
   30DIO    C1543645   6.273   0.351   3.007
   30DIO     F543646   6.210   0.244   2.954
   30DIO    C1643647   6.403   0.385   2.954
   30DIO    C1743648   6.479   0.497   3.010
   30DIO    C1843649   6.410   0.586   3.102
   30DIO    C1943650   6.279   0.553   3.154
   30DIO     F643651   6.216   0.648   3.227
   30DIO    C2043652   6.620   0.526   2.964
   30DIO     O343653   6.690   0.412   2.914
   30DIO    C2143654   6.733   0.324   3.017
   30DIO    C2243655   6.822   0.398   3.117
   30DIO    C2343656   6.741   0.517   3.168
   30DIO     O443657   6.697   0.599   3.060
   30DIO    C2443658   6.955   0.447   3.055
   30DIO    C2543659   7.046   0.338   2.996
   30DIO    C2643660   7.084   0.230   3.096
   30DIO     H143661   5.363   0.530   3.091
   30DIO     H243662   5.405   0.102   3.194
   30DIO     H343663   5.582   0.158   2.980
   30DIO     H443664   5.833   0.179   2.959
   30DIO     H543665   5.832   0.515   3.239
   30DIO     H643666   6.441   0.328   2.871
   30DIO     H743667   6.453   0.682   3.129
   30DIO     H843668   6.610   0.594   2.878
   30DIO     H943669   6.647   0.281   3.068
   30DIO    H1043670   6.786   0.241   2.970
   30DIO    H1143671   6.845   0.332   3.201
   30DIO    H1243672   6.802   0.580   3.234
   30DIO    H1343673   6.655   0.484   3.227
   30DIO    H1443674   6.935   0.521   2.976
   30DIO    H1543675   7.011   0.501   3.133
   30DIO    H1643676   6.998   0.292   2.909
   30DIO    H1743677   7.137   0.386   2.960
   30DIO    H1843678   7.128   0.273   3.186
   30DIO    H1943679   6.997   0.170   3.125
   30DIO    H2043680   7.158   0.163   3.051
   31DIO     F143681   3.250   0.801   0.779
   31DIO     C143682   3.328   0.743   0.873
   31DIO     C243683   3.472   0.743   0.856
   31DIO     C343684   3.561   0.679   0.955
   31DIO     C443685   3.495   0.617   1.073
   31DIO     C543686   3.351   0.618   1.087
   31DIO     F243687   3.296   0.564   1.198
   31DIO     C643688   3.267   0.681   0.988
   31DIO     F343689   3.134   0.680   1.002
   31DIO     C743690   3.707   0.677   0.939
   31DIO     C843691   3.784   0.552   0.952
   31DIO     C943692   3.929   0.550   0.936
   31DIO    C1043693   4.002   0.674   0.919
   31DIO    C1143694   3.929   0.799   0.899
   31DIO    C1243695   3.785   0.800   0.911
   31DIO     F443696   3.720   0.917   0.898
   31DIO     O143697   4.134   0.663   0.881
   31DIO    C1343698   4.228   0.756   0.925
   31DIO     O243699   4.229   0.839   1.019
   31DIO    C1443700   4.357   0.740   0.857
   31DIO    C1543701   4.424   0.609   0.843
   31DIO     F543702   4.361   0.497   0.886
   31DIO    C1643703   4.555   0.593   0.783
   31DIO    C1743704   4.630   0.709   0.738
   31DIO    C1843705   4.562   0.838   0.734
   31DIO    C1943706   4.430   0.853   0.794
   31DIO     F643707   4.367   0.971   0.774
   31DIO    C2043708   4.771   0.696   0.685
   31DIO     O343709   4.841   0.581   0.735
   31DIO    C2143710   4.884   0.598   0.870
   31DIO    C2243711   4.973   0.721   0.883
   31DIO    C2343712   4.893   0.840   0.830
   31DIO     O443713   4.848   0.815   0.697
   31DIO    C2443714   5.106   0.709   0.805
   31DIO    C2543715   5.197   0.592   0.845
   31DIO    C2643716   5.235   0.592   0.992
   31DIO     H143717   3.515   0.792   0.769
   31DIO     H243718   3.556   0.577   1.154
   31DIO     H343719   3.733   0.458   0.967
   31DIO     H443720   3.984   0.457   0.937
   31DIO     H543721   3.984   0.890   0.880
   31DIO     H643722   4.593   0.493   0.768
   31DIO     H743723   4.604   0.923   0.683
   31DIO     H843724   4.761   0.678   0.577
   31DIO     H943725   4.798   0.606   0.936
   31DIO    H1043726   4.937   0.507   0.899
   31DIO    H1143727   4.996   0.738   0.989
   31DIO    H1243728   4.954   0.930   0.829
   31DIO    H1343729   4.806   0.860   0.895
   31DIO    H1443730   5.086   0.701   0.698
   31DIO    H1543731   5.163   0.802   0.818
   31DIO    H1643732   5.149   0.497   0.820
   31DIO    H1743733   5.289   0.598   0.785
   31DIO    H1843734   5.279   0.688   1.022
   31DIO    H1943735   5.149   0.572   1.056
   31DIO    H2043736   5.309   0.513   1.012
   32DIO     F143737   2.753   3.000   4.417
   32DIO     C143738   2.831   3.010   4.308
   32DIO     C243739   2.975   3.018   4.323
   32DIO     C343740   3.064   3.032   4.206
   32DIO     C443741   2.998   3.036   4.073
   32DIO     C543742   2.854   3.028   4.060
   32DIO     F243743   2.799   3.028   3.937
   32DIO     C643744   2.770   3.015   4.177
   32DIO     F343745   2.636   3.010   4.164
   32DIO     C743746   3.210   3.040   4.219
   32DIO     C843747   3.287   3.148   4.153
   32DIO     C943748   3.432   3.156   4.166
   32DIO    C1043749   3.505   3.052   4.236
   32DIO    C1143750   3.432   2.949   4.309
   32DIO    C1243751   3.288   2.943   4.298
   32DIO     F443752   3.223   2.843   4.362
   32DIO     O143753   3.637   3.079   4.265
   32DIO    C1343754   3.731   2.976   4.267
   32DIO     O243755   3.732   2.860   4.219
   32DIO    C1443756   3.860   3.020   4.321
   32DIO    C1543757   3.927   3.144   4.275
   32DIO     F543758   3.864   3.226   4.188
   32DIO    C1643759   4.057   3.185   4.323
   32DIO    C1743760   4.133   3.100   4.414
   32DIO    C1843761   4.064   2.986   4.474
   32DIO    C1943762   3.933   2.946   4.427
   32DIO     F643763   3.870   2.849   4.497
   32DIO    C2043764   4.274   3.136   4.456
   32DIO     O343765   4.344   3.216   4.360
   32DIO    C2143766   4.387   3.142   4.247
   32DIO    C2243767   4.476   3.026   4.289
   32DIO    C2343768   4.395   2.942   4.388
   32DIO     O443769   4.351   3.022   4.497
   32DIO    C2443770   4.609   3.071   4.354
   32DIO    C2543771   4.700   3.158   4.266
   32DIO    C2643772   4.738   3.094   4.134
   32DIO     H143773   3.018   3.012   4.423
   32DIO     H243774   3.059   3.036   3.983
   32DIO     H343775   3.236   3.225   4.098
   32DIO     H443776   3.487   3.239   4.124
   32DIO     H543777   3.486   2.875   4.366
   32DIO     H643778   4.096   3.281   4.292
   32DIO     H743779   4.107   2.933   4.558
   32DIO     H843780   4.264   3.199   4.545
   32DIO     H943781   4.301   3.106   4.190
   32DIO    H1043782   4.440   3.211   4.180
   32DIO    H1143783   4.499   2.964   4.201
   32DIO    H1243784   4.457   2.861   4.429
   32DIO    H1343785   4.309   2.895   4.339
   32DIO    H1443786   4.589   3.126   4.447
   32DIO    H1543787   4.665   2.981   4.383
   32DIO    H1643788   4.652   3.255   4.247
   32DIO    H1743789   4.791   3.179   4.322
   32DIO    H1843790   4.782   2.995   4.149
   32DIO    H1943791   4.652   3.083   4.068
   32DIO    H2043792   4.812   3.156   4.082
   33DIO     F143793   0.317   6.643   9.211
   33DIO     C143794   0.395   6.748   9.177
   33DIO     C243795   0.539   6.737   9.190
   33DIO     C343796   0.628   6.850   9.156
   33DIO     C443797   0.562   6.974   9.107
   33DIO     C543798   0.418   6.983   9.095
   33DIO     F243799   0.363   7.095   9.046
   33DIO     C643800   0.334   6.870   9.129
   33DIO     F343801   0.201   6.880   9.119
   33DIO     C743802   0.774   6.841   9.169
   33DIO     C843803   0.851   6.945   9.241
   33DIO     C943804   0.996   6.936   9.254
   33DIO    C1043805   1.069   6.830   9.187
   33DIO    C1143806   0.996   6.723   9.121
   33DIO    C1243807   0.852   6.730   9.111
   33DIO     F443808   0.787   6.632   9.045
   33DIO     O143809   1.201   6.814   9.223
   33DIO    C1343810   1.295   6.772   9.129
   33DIO     O243811   1.296   6.770   9.003
   33DIO    C1443812   1.425   6.740   9.191
   33DIO    C1543813   1.491   6.831   9.286
   33DIO     F543814   1.428   6.943   9.327
   33DIO    C1643815   1.622   6.804   9.343
   33DIO    C1743816   1.697   6.686   9.301
   33DIO    C1843817   1.629   6.586   9.221
   33DIO    C1943818   1.497   6.613   9.165
   33DIO     F643819   1.435   6.510   9.104
   33DIO    C2043820   1.838   6.662   9.351
   33DIO     O343821   1.908   6.782   9.387
   33DIO    C2143822   1.952   6.856   9.274
   33DIO    C2243823   2.040   6.771   9.183
   33DIO    C2343824   1.960   6.647   9.146
   33DIO     O443825   1.915   6.579   9.263
   33DIO    C2443826   2.173   6.730   9.251
   33DIO    C2543827   2.264   6.845   9.296
   33DIO    C2643828   2.302   6.941   9.184
   33DIO     H143829   0.582   6.643   9.225
   33DIO     H243830   0.623   7.057   9.071
   33DIO     H343831   0.800   7.026   9.291
   33DIO     H443832   1.051   7.007   9.314
   33DIO     H543833   1.051   6.641   9.076
   33DIO     H643834   1.660   6.870   9.419
   33DIO     H743835   1.672   6.488   9.205
   33DIO     H843836   1.828   6.605   9.444
   33DIO     H943837   1.865   6.894   9.218
   33DIO    H1043838   2.004   6.945   9.310
   33DIO    H1143839   2.063   6.827   9.092
   33DIO    H1243840   2.021   6.577   9.088
   33DIO    H1343841   1.874   6.674   9.084
   33DIO    H1443842   2.153   6.667   9.338
   33DIO    H1543843   2.230   6.668   9.180
   33DIO    H1643844   2.217   6.901   9.377
   33DIO    H1743845   2.356   6.802   9.338
   33DIO    H1843846   2.346   6.887   9.099
   33DIO    H1943847   2.216   6.997   9.148
   33DIO    H2043848   2.376   7.013   9.221
   34DIO     F143849   1.786   8.028   9.895
   34DIO     C143850   1.864   7.968   9.803
   34DIO     C243851   2.008   7.983   9.811
   34DIO     C343852   2.097   7.921   9.710
   34DIO     C443853   2.031   7.841   9.603
   34DIO     C543854   1.887   7.828   9.598
   34DIO     F243855   1.832   7.751   9.502
   34DIO     C643856   1.803   7.890   9.698
   34DIO     F343857   1.670   7.878   9.691
   34DIO     C743858   2.243   7.936   9.715
   34DIO     C843859   2.320   7.979   9.596
   34DIO     C943860   2.465   7.993   9.601
   34DIO    C1043861   2.538   7.956   9.721
   34DIO    C1143862   2.465   7.921   9.842
   34DIO    C1243863   2.321   7.909   9.838
   34DIO     F443864   2.256   7.871   9.950
   34DIO     O143865   2.670   7.995   9.727
   34DIO    C1343866   2.764   7.916   9.792
   34DIO     O243867   2.765   7.795   9.827
   34DIO    C1443868   2.893   7.983   9.808
   34DIO    C1543869   2.960   8.052   9.695
   34DIO     F543870   2.897   8.062   9.575
   34DIO    C1643871   3.091   8.114   9.706
   34DIO    C1743872   3.166   8.104   9.831
   34DIO    C1843873   3.098   8.052   9.948
   34DIO    C1943874   2.966   7.992   9.936
   34DIO     F643875   2.903   7.959  10.052
   34DIO    C2043876   3.307   8.158   9.841
   34DIO     O343877   3.377   8.162   9.716
   34DIO    C2143878   3.420   8.033   9.673
   34DIO    C2243879   3.509   7.968   9.779
   34DIO    C2343880   3.429   7.965   9.909
   34DIO     O443881   3.384   8.095   9.944
   34DIO    C2443882   3.642   8.044   9.801
   34DIO    C2543883   3.733   8.057   9.679
   34DIO    C2643884   3.771   7.925   9.615
   34DIO     H143885   2.051   8.041   9.892
   34DIO     H243886   2.092   7.786   9.533
   34DIO     H343887   2.269   8.005   9.505
   34DIO     H443888   2.520   8.033   9.517
   34DIO     H543889   2.520   7.898   9.933
   34DIO     H643890   3.129   8.170   9.622
   34DIO     H743891   3.140   8.062  10.047
   34DIO     H843892   3.297   8.263   9.872
   34DIO     H943893   3.334   7.970   9.652
   34DIO    H1043894   3.473   8.045   9.578
   34DIO    H1143895   3.532   7.865   9.749
   34DIO    H1243896   3.490   7.927   9.991
   34DIO    H1343897   3.342   7.897   9.899
   34DIO    H1443898   3.622   8.144   9.840
   34DIO    H1543899   3.699   7.992   9.880
   34DIO    H1643900   3.685   8.122   9.603
   34DIO    H1743901   3.825   8.109   9.709
   34DIO    H1843902   3.815   7.857   9.689
   34DIO    H1943903   3.685   7.875   9.570
   34DIO    H2043904   3.845   7.941   9.536
   35DIO     F143905   0.446   8.846   8.788
   35DIO     C143906   0.523   8.790   8.882
   35DIO     C243907   0.667   8.790   8.865
   35DIO     C343908   0.756   8.727   8.966
   35DIO     C443909   0.691   8.667   9.085
   35DIO     C543910   0.546   8.669   9.099
   35DIO     F243911   0.491   8.617   9.211
   35DIO     C643912   0.463   8.730   8.999
   35DIO     F343913   0.329   8.729   9.013
   35DIO     C743914   0.902   8.725   8.950
   35DIO     C843915   0.980   8.600   8.965
   35DIO     C943916   1.124   8.598   8.950
   35DIO    C1043917   1.197   8.722   8.930
   35DIO    C1143918   1.124   8.846   8.907
   35DIO    C1243919   0.980   8.847   8.920
   35DIO     F443920   0.915   8.964   8.904
   35DIO     O143921   1.329   8.710   8.892
   35DIO    C1343922   1.424   8.803   8.934
   35DIO     O243923   1.424   8.888   9.027
   35DIO    C1443924   1.553   8.787   8.866
   35DIO    C1543925   1.619   8.655   8.855
   35DIO     F543926   1.556   8.544   8.900
   35DIO    C1643927   1.750   8.638   8.795
   35DIO    C1743928   1.826   8.754   8.748
   35DIO    C1843929   1.757   8.882   8.742
   35DIO    C1943930   1.625   8.899   8.802
   35DIO     F643931   1.563   9.016   8.780
   35DIO    C2043932   1.966   8.739   8.695
   35DIO     O343933   2.036   8.625   8.748
   35DIO    C2143934   2.080   8.645   8.882
   35DIO    C2243935   2.169   8.768   8.893
   35DIO    C2343936   2.088   8.886   8.838
   35DIO     O443937   2.044   8.859   8.705
   35DIO    C2443938   2.301   8.754   8.815
   35DIO    C2543939   2.392   8.638   8.858
   35DIO    C2643940   2.430   8.641   9.005
   35DIO     H143941   0.710   8.837   8.777
   35DIO     H243942   0.751   8.629   9.166
   35DIO     H343943   0.928   8.506   8.982
   35DIO     H443944   1.179   8.505   8.952
   35DIO     H543945   1.179   8.937   8.887
   35DIO     H643946   1.788   8.537   8.782
   35DIO     H743947   1.800   8.966   8.689
   35DIO     H843948   1.957   8.720   8.588
   35DIO     H943949   1.993   8.653   8.948
   35DIO    H1043950   2.132   8.554   8.913
   35DIO    H1143951   2.191   8.787   8.999
   35DIO    H1243952   2.149   8.976   8.835
   35DIO    H1343953   2.002   8.907   8.903
   35DIO    H1443954   2.281   8.744   8.708
   35DIO    H1543955   2.358   8.848   8.827
   35DIO    H1643956   2.345   8.542   8.834
   35DIO    H1743957   2.484   8.643   8.798
   35DIO    H1843958   2.474   8.737   9.033
   35DIO    H1943959   2.344   8.622   9.069
   35DIO    H2043960   2.504   8.563   9.026
   36DIO     F143961   6.100   2.837   5.936
   36DIO     C143962   6.178   2.752   6.006
   36DIO     C243963   6.322   2.758   5.990
   36DIO     C343964   6.411   2.665   6.063
   36DIO     C443965   6.345   2.568   6.155
   36DIO     C543966   6.201   2.565   6.169
   36DIO     F243967   6.146   2.478   6.257
   36DIO     C643968   6.117   2.656   6.095
   36DIO     F343969   5.984   2.651   6.109
   36DIO     C743970   6.557   2.668   6.048
   36DIO     C843971   6.634   2.545   6.019
   36DIO     C943972   6.779   2.548   6.004
   36DIO    C1043973   6.852   2.672   6.027
   36DIO    C1143974   6.779   2.796   6.048
   36DIO    C1243975   6.635   2.793   6.060
   36DIO     F443976   6.570   2.909   6.085
   36DIO     O143977   6.984   2.673   5.988
   36DIO    C1343978   7.078   2.747   6.059
   36DIO     O243979   7.079   2.796   6.175
   36DIO    C1443980   7.207   2.755   5.990
   36DIO    C1543981   7.274   2.634   5.935
   36DIO     F543982   7.211   2.515   5.939
   36DIO    C1643983   7.405   2.638   5.872
   36DIO    C1743984   7.480   2.763   5.867
   36DIO    C1843985   7.412   2.886   5.905
   36DIO    C1943986   7.280   2.881   5.966
   36DIO     F643987   7.217   3.000   5.985
   36DIO    C2043988   7.621   2.767   5.813
   36DIO     O343989   7.691   2.642   5.824
   36DIO    C2143990   7.734   2.615   5.956
   36DIO    C2243991   7.823   2.728   6.009
   36DIO    C2343992   7.743   2.857   5.996
   36DIO     O443993   7.698   2.877   5.862
   36DIO    C2443994   7.956   2.741   5.931
   36DIO    C2543995   8.047   2.618   5.932
   36DIO    C2643996   8.085   2.570   6.071
   36DIO     H143997   6.365   2.831   5.923
   36DIO     H243998   6.406   2.505   6.219
   36DIO     H343999   6.583   2.451   6.004
   36DIO     H444000   6.834   2.460   5.975
   36DIO     H544001   6.834   2.889   6.060
   36DIO     H644002   7.443   2.548   5.826
   36DIO     H744003   7.454   2.983   5.883
   36DIO     H844004   7.611   2.785   5.705
   36DIO     H944005   7.648   2.601   6.022
   36DIO    H1044006   7.787   2.520   5.955
   36DIO    H1144007   7.846   2.710   6.114
   36DIO    H1244008   7.804   2.943   6.024
   36DIO    H1344009   7.656   2.856   6.064
   36DIO    H1444010   7.936   2.768   5.826
   36DIO    H1544011   8.013   2.825   5.973
   36DIO    H1644012   7.999   2.535   5.877
   36DIO    H1744013   8.139   2.642   5.876
   36DIO    H1844014   8.129   2.652   6.129
   36DIO    H1944015   7.999   2.531   6.125
   36DIO    H2044016   8.159   2.490   6.064
   37DIO     F144017   7.342   3.166   2.006
   37DIO     C144018   7.420   3.267   2.049
   37DIO     C244019   7.564   3.250   2.051
   37DIO     C344020   7.653   3.358   2.100
   37DIO     C444021   7.587   3.483   2.144
   37DIO     C544022   7.443   3.498   2.141
   37DIO     F244023   7.388   3.615   2.177
   37DIO     C644024   7.359   3.390   2.093
   37DIO     F344025   7.226   3.404   2.092
   37DIO     C744026   7.799   3.342   2.104
   37DIO     C844027   7.876   3.373   2.227
   37DIO     C944028   8.021   3.358   2.231
   37DIO    C1044029   8.094   3.322   2.110
   37DIO    C1144030   8.021   3.284   1.990
   37DIO    C1244031   7.877   3.296   1.987
   37DIO     F444032   7.812   3.265   1.873
   37DIO     O144033   8.226   3.287   2.127
   37DIO    C1344034   8.320   3.316   2.029
   37DIO     O244035   8.321   3.397   1.932
   37DIO    C1444036   8.449   3.251   2.054
   37DIO    C1544037   8.516   3.258   2.186
   37DIO     F544038   8.453   3.316   2.290
   37DIO    C1644039   8.647   3.200   2.211
   37DIO    C1744040   8.722   3.139   2.102
   37DIO    C1844041   8.654   3.116   1.976
   37DIO    C1944042   8.522   3.172   1.952
   37DIO     F644043   8.459   3.135   1.838
   37DIO    C2044044   8.863   3.088   2.124
   37DIO     O344045   8.933   3.155   2.230
   37DIO    C2144046   8.976   3.285   2.193
   37DIO    C2244047   9.065   3.280   2.069
   37DIO    C2344048   8.985   3.210   1.960
   37DIO     O444049   8.940   3.082   2.004
   37DIO    C2444050   9.198   3.205   2.093
   37DIO    C2544051   9.289   3.262   2.202
   37DIO    C2644052   9.327   3.408   2.181
   37DIO     H144053   7.607   3.157   2.016
   37DIO     H244054   7.648   3.569   2.171
   37DIO     H344055   7.825   3.402   2.317
   37DIO     H444056   8.076   3.373   2.322
   37DIO     H544057   8.076   3.252   1.903
   37DIO     H644058   8.685   3.200   2.312
   37DIO     H744059   8.696   3.052   1.900
   37DIO     H844060   8.853   2.984   2.157
   37DIO     H944061   8.890   3.350   2.176
   37DIO    H1044062   9.029   3.328   2.279
   37DIO    H1144063   9.088   3.382   2.036
   37DIO    H1244064   9.046   3.196   1.870
   37DIO    H1344065   8.898   3.271   1.930
   37DIO    H1444066   9.178   3.100   2.117
   37DIO    H1544067   9.255   3.204   1.999
   37DIO    H1644068   9.241   3.251   2.301
   37DIO    H1744069   9.381   3.202   2.206
   37DIO    H1844070   9.371   3.423   2.082
   37DIO    H1944071   9.241   3.474   2.191
   37DIO    H2044072   9.401   3.438   2.255
   38DIO     F144073   0.188   1.064   3.023
   38DIO     C144074   0.266   1.173   3.007
   38DIO     C244075   0.410   1.160   3.018
   38DIO     C344076   0.499   1.277   3.003
   38DIO     C444077   0.433   1.407   2.974
   38DIO     C544078   0.289   1.417   2.964
   38DIO     F244079   0.234   1.536   2.934
   38DIO     C644080   0.205   1.301   2.980
   38DIO     F344081   0.072   1.312   2.971
   38DIO     C744082   0.645   1.266   3.014
   38DIO     C844083   0.722   1.357   3.102
   38DIO     C944084   0.867   1.346   3.113
   38DIO    C1044085   0.940   1.252   3.030
   38DIO    C1144086   0.867   1.157   2.948
   38DIO    C1244087   0.723   1.166   2.939
   38DIO     F444088   0.658   1.079   2.858
   38DIO     O144089   1.072   1.231   3.063
   38DIO    C1344090   1.166   1.204   2.964
   38DIO     O244091   1.167   1.222   2.839
   38DIO    C1444092   1.296   1.162   3.019
   38DIO    C1544093   1.362   1.237   3.128
   38DIO     F544094   1.299   1.341   3.187
   38DIO    C1644095   1.493   1.201   3.180
   38DIO    C1744096   1.568   1.092   3.120
   38DIO    C1844097   1.500   1.006   3.024
   38DIO    C1944098   1.368   1.041   2.974
   38DIO     F644099   1.306   0.950   2.896
   38DIO    C2044100   1.709   1.060   3.165
   38DIO     O344101   1.779   1.172   3.220
   38DIO    C2144102   1.823   1.264   3.120
   38DIO    C2244103   1.911   1.195   3.017
   38DIO    C2344104   1.831   1.078   2.961
   38DIO     O444105   1.786   0.992   3.065
   38DIO    C2444106   2.044   1.143   3.077
   38DIO    C2544107   2.135   1.249   3.140
   38DIO    C2644108   2.173   1.362   3.045
   38DIO     H144109   0.453   1.062   3.037
   38DIO     H244110   0.494   1.494   2.952
   38DIO     H344111   0.671   1.429   3.164
   38DIO     H444112   0.922   1.407   3.184
   38DIO     H544113   0.922   1.083   2.890
   38DIO     H644114   1.531   1.255   3.266
   38DIO     H744115   1.543   0.912   2.993
   38DIO     H844116   1.699   0.989   3.248
   38DIO     H944117   1.736   1.310   3.071
   38DIO    H1044118   1.875   1.346   3.170
   38DIO    H1144119   1.934   1.265   2.936
   38DIO    H1244120   1.892   1.018   2.892
   38DIO    H1344121   1.745   1.114   2.903
   38DIO    H1444122   2.024   1.066   3.153
   38DIO    H1544123   2.101   1.093   2.997
   38DIO    H1644124   2.088   1.291   3.229
   38DIO    H1744125   2.227   1.200   3.175
   38DIO    H1844126   2.217   1.323   2.953
   38DIO    H1944127   2.087   1.423   3.019
   38DIO    H2044128   2.247   1.427   3.093
   39DIO     F144129   8.013   6.139   7.088
   39DIO     C144130   8.091   6.052   7.155
   39DIO     C244131   8.235   6.059   7.139
   39DIO     C344132   8.324   5.964   7.210
   39DIO     C444133   8.258   5.865   7.299
   39DIO     C544134   8.114   5.860   7.313
   39DIO     F244135   8.058   5.771   7.397
   39DIO     C644136   8.030   5.954   7.242
   39DIO     F344137   7.896   5.949   7.255
   39DIO     C744138   8.470   5.968   7.194
   39DIO     C844139   8.547   5.846   7.162
   39DIO     C944140   8.692   5.849   7.147
   39DIO    C1044141   8.764   5.972   7.174
   39DIO    C1144142   8.692   6.096   7.199
   39DIO    C1244143   8.548   6.092   7.211
   39DIO     F444144   8.483   6.207   7.239
   39DIO     O144145   8.897   5.975   7.135
   39DIO    C1344146   8.991   6.046   7.208
   39DIO     O244147   8.992   6.091   7.326
   39DIO    C1444148   9.120   6.056   7.139
   39DIO    C1544149   9.187   5.937   7.081
   39DIO     F544150   9.124   5.818   7.081
   39DIO    C1644151   9.317   5.943   7.018
   39DIO    C1744152   9.393   6.068   7.017
   39DIO    C1844153   9.324   6.190   7.059
   39DIO    C1944154   9.193   6.183   7.120
   39DIO     F644155   9.130   6.301   7.142
   39DIO    C2044156   9.534   6.074   6.963
   39DIO     O344157   9.604   5.949   6.970
   39DIO    C2144158   9.647   5.918   7.102
   39DIO    C2244159   9.736   6.028   7.157
   39DIO    C2344160   9.655   6.158   7.149
   39DIO     O444161   9.611   6.182   7.016
   39DIO    C2444162   9.869   6.044   7.080
   39DIO    C2544163   9.960   5.921   7.077
   39DIO    C2644164   9.998   5.869   7.215
   39DIO     H144165   8.277   6.134   7.075
   39DIO     H244166   8.319   5.799   7.360
   39DIO     H344167   8.496   5.752   7.144
   39DIO     H444168   8.747   5.762   7.115
   39DIO     H544169   8.746   6.188   7.213
   39DIO     H644170   9.355   5.854   6.969
   39DIO     H744171   9.367   6.287   7.040
   39DIO     H844172   9.524   6.095   6.855
   39DIO     H944173   9.561   5.902   7.166
   39DIO    H1044174   9.700   5.822   7.098
   39DIO    H1144175   9.759   6.008   7.262
   39DIO    H1244176   9.716   6.243   7.180
   39DIO    H1344177   9.569   6.155   7.217
   39DIO    H1444178   9.849   6.074   6.976
   39DIO    H1544179   9.925   6.127   7.125
   39DIO    H1644180   9.912   5.840   7.019
   39DIO    H1744181  10.051   5.947   7.022
   39DIO    H1844182  10.042   5.949   7.276
   39DIO    H1944183   9.911   5.828   7.268
   39DIO    H2044184  10.072   5.789   7.205
   40DIO     F144185   8.011   8.479   6.424
   40DIO     C144186   8.089   8.571   6.485
   40DIO     C244187   8.233   8.554   6.484
   40DIO     C344188   8.322   8.652   6.551
   40DIO     C444189   8.256   8.767   6.616
   40DIO     C544190   8.112   8.782   6.616
   40DIO     F244191   8.057   8.891   6.673
   40DIO     C644192   8.028   8.685   6.550
   40DIO     F344193   7.895   8.699   6.551
   40DIO     C744194   8.468   8.636   6.552
   40DIO     C844195   8.545   8.644   6.678
   40DIO     C944196   8.690   8.629   6.680
   40DIO    C1044197   8.763   8.615   6.555
   40DIO    C1144198   8.690   8.599   6.430
   40DIO    C1244199   8.546   8.611   6.429
   40DIO     F444200   8.481   8.601   6.311
   40DIO     O144201   8.895   8.577   6.565
   40DIO    C1344202   8.989   8.623   6.474
   40DIO     O244203   8.990   8.720   6.393
   40DIO    C1444204   9.118   8.555   6.487
   40DIO    C1544205   9.185   8.538   6.618
   40DIO     F544206   9.122   8.577   6.731
   40DIO    C1644207   9.316   8.477   6.632
   40DIO    C1744208   9.391   8.436   6.515
   40DIO    C1844209   9.323   8.436   6.386
   40DIO    C1944210   9.191   8.496   6.372
   40DIO     F644211   9.128   8.479   6.254
   40DIO    C2044212   9.532   8.382   6.527
   40DIO     O344213   9.602   8.429   6.643
   40DIO    C2144214   9.645   8.564   6.630
   40DIO    C2244215   9.734   8.581   6.507
   40DIO    C2344216   9.654   8.532   6.387
   40DIO     O444217   9.609   8.398   6.407
   40DIO    C2444218   9.867   8.503   6.517
   40DIO    C2544219   9.958   8.539   6.635
   40DIO    C2644220   9.996   8.686   6.639
   40DIO     H144221   8.276   8.468   6.433
   40DIO     H244222   8.317   8.847   6.659
   40DIO     H344223   8.494   8.657   6.773
   40DIO     H444224   8.745   8.627   6.773
   40DIO     H544225   8.745   8.583   6.338
   40DIO     H644226   9.354   8.459   6.732
   40DIO     H744227   9.365   8.386   6.300
   40DIO     H844228   9.522   8.274   6.541
   40DIO     H944229   9.559   8.631   6.624
   40DIO    H1044230   9.698   8.591   6.721
   40DIO    H1144231   9.757   8.687   6.493
   40DIO    H1244232   9.715   8.533   6.296
   40DIO    H1344233   9.567   8.597   6.368
   40DIO    H1444234   9.847   8.395   6.522
   40DIO    H1544235   9.924   8.519   6.424
   40DIO    H1644236   9.910   8.511   6.729
   40DIO    H1744237  10.050   8.480   6.628
   40DIO    H1844238  10.040   8.719   6.544
   40DIO    H1944239   9.910   8.750   6.661
   40DIO    H2044240  10.070   8.704   6.718
   41DIO     F144241   6.157   3.631   1.212
   41DIO     C144242   6.235   3.658   1.106
   41DIO     C244243   6.379   3.663   1.122
   41DIO     C344244   6.468   3.695   1.008
   41DIO     C444245   6.402   3.720   0.877
   41DIO     C544246   6.258   3.715   0.864
   41DIO     F244247   6.202   3.734   0.742
   41DIO     C644248   6.174   3.684   0.977
   41DIO     F344249   6.040   3.680   0.963
   41DIO     C744250   6.614   3.702   1.023
   41DIO     C844251   6.691   3.818   0.974
   41DIO     C944252   6.836   3.824   0.988
   41DIO    C1044253   6.908   3.711   1.041
   41DIO    C1144254   6.836   3.598   1.097
   41DIO    C1244255   6.692   3.593   1.085
   41DIO     F444256   6.627   3.485   1.133
   41DIO     O144257   7.041   3.732   1.074
   41DIO    C1344258   7.135   3.631   1.060
   41DIO     O244259   7.136   3.524   0.994
   41DIO    C1444260   7.264   3.666   1.120
   41DIO    C1544261   7.330   3.795   1.094
   41DIO     F544262   7.268   3.890   1.021
   41DIO    C1644263   7.461   3.828   1.148
   41DIO    C1744264   7.537   3.730   1.224
   41DIO    C1844265   7.468   3.608   1.266
   41DIO    C1944266   7.337   3.576   1.213
   41DIO     F644267   7.274   3.469   1.267
   41DIO    C2044268   7.678   3.759   1.271
   41DIO     O344269   7.747   3.854   1.189
   41DIO    C2144270   7.791   3.798   1.066
   41DIO    C2244271   7.880   3.676   1.089
   41DIO    C2344272   7.799   3.579   1.174
   41DIO     O444273   7.755   3.641   1.295
   41DIO    C2444274   8.013   3.711   1.160
   41DIO    C2544275   8.103   3.811   1.087
   41DIO    C2644276   8.142   3.768   0.947
   41DIO     H144277   6.421   3.643   1.219
   41DIO     H244278   6.463   3.734   0.788
   41DIO     H344279   6.640   3.903   0.932
   41DIO     H444280   6.891   3.913   0.960
   41DIO     H544281   6.890   3.516   1.142
   41DIO     H644282   7.499   3.929   1.132
   41DIO     H744283   7.511   3.543   1.340
   41DIO     H844284   7.668   3.807   1.369
   41DIO     H944285   7.704   3.771   1.005
   41DIO    H1044286   7.844   3.876   1.011
   41DIO    H1144287   7.903   3.629   0.993
   41DIO    H1244288   7.860   3.492   1.202
   41DIO    H1344289   7.713   3.540   1.119
   41DIO    H1444290   7.993   3.751   1.261
   41DIO    H1544291   8.069   3.618   1.175
   41DIO    H1644292   8.056   3.910   1.084
   41DIO    H1744293   8.195   3.823   1.146
   41DIO    H1844294   8.186   3.667   0.947
   41DIO    H1944295   8.055   3.768   0.880
   41DIO    H2044296   8.216   3.837   0.905
   42DIO     F144297   4.481   6.423   1.563
   42DIO     C144298   4.559   6.416   1.453
   42DIO     C244299   4.703   6.425   1.467
   42DIO     C344300   4.792   6.420   1.349
   42DIO     C444301   4.726   6.403   1.217
   42DIO     C544302   4.582   6.394   1.206
   42DIO     F244303   4.527   6.374   1.085
   42DIO     C644304   4.498   6.399   1.323
   42DIO     F344305   4.364   6.392   1.311
   42DIO     C744306   4.938   6.431   1.361
   42DIO     C844307   5.015   6.526   1.278
   42DIO     C944308   5.160   6.536   1.290
   42DIO    C1044309   5.233   6.445   1.376
   42DIO    C1144310   5.160   6.355   1.464
   42DIO    C1244311   5.016   6.347   1.455
   42DIO     F444312   4.951   6.259   1.534
   42DIO     O144313   5.365   6.476   1.400
   42DIO    C1344314   5.459   6.375   1.418
   42DIO     O244315   5.460   6.253   1.390
   42DIO    C1444316   5.588   6.427   1.465
   42DIO    C1544317   5.655   6.542   1.400
   42DIO     F544318   5.592   6.609   1.301
   42DIO    C1644319   5.785   6.590   1.440
   42DIO    C1744320   5.861   6.521   1.544
   42DIO    C1844321   5.792   6.418   1.621
   42DIO    C1944322   5.661   6.371   1.581
   42DIO     F644323   5.598   6.286   1.666
   42DIO    C2044324   6.002   6.563   1.579
   42DIO     O344325   6.072   6.627   1.472
   42DIO    C2144326   6.115   6.536   1.372
   42DIO    C2244327   6.204   6.428   1.432
   42DIO    C2344328   6.123   6.361   1.544
   42DIO     O444329   6.079   6.458   1.639
   42DIO    C2444330   6.337   6.483   1.489
   42DIO    C2544331   6.428   6.555   1.388
   42DIO    C2644332   6.466   6.470   1.268
   42DIO     H144333   4.746   6.436   1.566
   42DIO     H244334   4.787   6.389   1.128
   42DIO     H344335   4.964   6.594   1.211
   42DIO     H444336   5.215   6.612   1.235
   42DIO     H544337   5.214   6.291   1.532
   42DIO     H644338   5.824   6.681   1.394
   42DIO     H744339   5.835   6.379   1.712
   42DIO     H844340   5.992   6.640   1.657
   42DIO     H944341   6.029   6.491   1.322
   42DIO    H1044342   6.168   6.593   1.295
   42DIO    H1144343   6.227   6.352   1.356
   42DIO    H1244344   6.185   6.288   1.597
   42DIO    H1344345   6.037   6.307   1.503
   42DIO    H1444346   6.317   6.552   1.572
   42DIO    H1544347   6.393   6.399   1.532
   42DIO    H1644348   6.380   6.647   1.354
   42DIO    H1744349   6.519   6.585   1.441
   42DIO    H1844350   6.510   6.375   1.300
   42DIO    H1944351   6.380   6.449   1.205
   42DIO    H2044352   6.540   6.523   1.207
   43DIO     F144353   4.583   3.285   6.589
   43DIO     C144354   4.661   3.382   6.641
   43DIO     C244355   4.805   3.365   6.642
   43DIO     C344356   4.894   3.468   6.700
   43DIO     C444357   4.828   3.589   6.754
   43DIO     C544358   4.684   3.604   6.752
   43DIO     F244359   4.629   3.717   6.799
   43DIO     C644360   4.600   3.501   6.696
   43DIO     F344361   4.467   3.515   6.696
   43DIO     C744362   5.040   3.452   6.703
   43DIO     C844363   5.117   3.472   6.827
   43DIO     C944364   5.262   3.457   6.830
   43DIO    C1044365   5.335   3.432   6.707
   43DIO    C1144366   5.262   3.404   6.584
   43DIO    C1244367   5.118   3.417   6.582
   43DIO     F444368   5.053   3.396   6.466
   43DIO     O144369   5.467   3.395   6.721
   43DIO    C1344370   5.561   3.433   6.625
   43DIO     O244371   5.562   3.522   6.536
   43DIO    C1444372   5.690   3.366   6.645
   43DIO    C1544373   5.757   3.361   6.777
   43DIO     F544374   5.694   3.410   6.886
   43DIO    C1644375   5.888   3.301   6.797
   43DIO    C1744376   5.963   3.249   6.683
   43DIO    C1844377   5.895   3.238   6.555
   43DIO    C1944378   5.763   3.296   6.536
   43DIO     F644379   5.700   3.269   6.420
   43DIO    C2044380   6.104   3.197   6.700
   43DIO     O344381   6.174   3.255   6.812
   43DIO    C2144382   6.217   3.388   6.786
   43DIO    C2244383   6.306   3.393   6.662
   43DIO    C2344384   6.226   3.333   6.547
   43DIO     O444385   6.181   3.202   6.580
   43DIO    C2444386   6.439   3.316   6.680
   43DIO    C2544387   6.530   3.364   6.794
   43DIO    C2644388   6.568   3.511   6.785
   43DIO     H144389   4.848   3.275   6.599
   43DIO     H244390   4.889   3.672   6.789
   43DIO     H344391   5.066   3.494   6.920
   43DIO     H444392   5.317   3.464   6.923
   43DIO     H544393   5.317   3.380   6.494
   43DIO     H644394   5.926   3.293   6.898
   43DIO     H744395   5.937   3.181   6.474
   43DIO     H844396   6.094   3.091   6.725
   43DIO     H944397   6.131   3.454   6.774
   43DIO    H1044398   6.270   3.423   6.875
   43DIO    H1144399   6.329   3.498   6.639
   43DIO    H1244400   6.287   3.326   6.457
   43DIO    H1344401   6.139   3.397   6.523
   43DIO    H1444402   6.419   3.210   6.695
   43DIO    H1544403   6.496   3.324   6.586
   43DIO    H1644404   6.482   3.344   6.890
   43DIO    H1744405   6.622   3.304   6.792
   43DIO    H1844406   6.612   3.534   6.687
   43DIO    H1944407   6.482   3.576   6.800
   43DIO    H2044408   6.642   3.535   6.862
   44DIO     F144409   1.017   3.603   1.921
   44DIO     C144410   1.094   3.533   2.007
   44DIO     C244411   1.238   3.536   1.990
   44DIO     C344412   1.327   3.460   2.081
   44DIO     C444413   1.262   3.383   2.189
   44DIO     C544414   1.117   3.383   2.204
   44DIO     F244415   1.062   3.315   2.307
   44DIO     C644416   1.034   3.458   2.114
   44DIO     F344417   0.900   3.455   2.128
   44DIO     C744418   1.474   3.460   2.065
   44DIO     C844419   1.551   3.334   2.061
   44DIO     C944420   1.695   3.334   2.046
   44DIO    C1044421   1.768   3.460   2.044
   44DIO    C1144422   1.695   3.585   2.039
   44DIO    C1244423   1.551   3.585   2.052
   44DIO     F444424   1.486   3.703   2.053
   44DIO     O144425   1.900   3.453   2.005
   44DIO    C1344426   1.995   3.539   2.060
   44DIO     O244427   1.996   3.610   2.164
   44DIO    C1444428   2.124   3.533   1.991
   44DIO    C1544429   2.190   3.404   1.961
   44DIO     F544430   2.127   3.288   1.989
   44DIO    C1644431   2.321   3.396   1.898
   44DIO    C1744432   2.397   3.517   1.869
   44DIO    C1844433   2.328   3.645   1.881
   44DIO    C1944434   2.196   3.653   1.942
   44DIO     F644435   2.134   3.772   1.938
   44DIO    C2044436   2.537   3.510   1.815
   44DIO     O344437   2.607   3.390   1.850
   44DIO    C2144438   2.651   3.390   1.986
   44DIO    C2244439   2.740   3.510   2.014
   44DIO    C2344440   2.659   3.635   1.977
   44DIO     O444441   2.615   3.627   1.842
   44DIO    C2444442   2.872   3.508   1.935
   44DIO    C2544443   2.963   3.387   1.961
   44DIO    C2644444   3.002   3.369   2.107
   44DIO     H144445   1.281   3.595   1.910
   44DIO     H244446   1.322   3.334   2.265
   44DIO     H344447   1.499   3.239   2.065
   44DIO     H444448   1.750   3.242   2.035
   44DIO     H544449   1.750   3.679   2.032
   44DIO     H644450   2.359   3.298   1.871
   44DIO     H744451   2.371   3.735   1.841
   44DIO     H844452   2.528   3.506   1.705
   44DIO     H944453   2.564   3.389   2.052
   44DIO    H1044454   2.704   3.296   2.004
   44DIO    H1144455   2.762   3.514   2.121
   44DIO    H1244456   2.720   3.725   1.987
   44DIO    H1344457   2.573   3.647   2.044
   44DIO    H1444458   2.853   3.513   1.828
   44DIO    H1544459   2.929   3.599   1.960
   44DIO    H1644460   2.916   3.296   1.923
   44DIO    H1744461   3.055   3.400   1.902
   44DIO    H1844462   3.045   3.460   2.148
   44DIO    H1944463   2.915   3.341   2.168
   44DIO    H2044464   3.075   3.288   2.116
   45DIO     F144465   2.648   2.124   8.637
   45DIO     C144466   2.725   2.062   8.728
   45DIO     C244467   2.870   2.063   8.711
   45DIO     C344468   2.958   1.994   8.807
   45DIO     C444469   2.893   1.926   8.921
   45DIO     C544470   2.749   1.926   8.935
   45DIO     F244471   2.693   1.866   9.043
   45DIO     C644472   2.665   1.994   8.840
   45DIO     F344473   2.531   1.993   8.854
   45DIO     C744474   3.105   1.993   8.791
   45DIO     C844475   3.182   1.866   8.796
   45DIO     C944476   3.327   1.866   8.781
   45DIO    C1044477   3.399   1.991   8.770
   45DIO    C1144478   3.327   2.116   8.756
   45DIO    C1244479   3.183   2.116   8.769
   45DIO     F444480   3.118   2.234   8.761
   45DIO     O144481   3.531   1.981   8.732
   45DIO    C1344482   3.626   2.072   8.780
   45DIO     O244483   3.627   2.150   8.879
   45DIO    C1444484   3.755   2.060   8.711
   45DIO    C1544485   3.821   1.929   8.691
   45DIO     F544486   3.759   1.815   8.728
   45DIO    C1644487   3.952   1.916   8.630
   45DIO    C1744488   4.028   2.035   8.591
   45DIO    C1844489   3.959   2.164   8.594
   45DIO    C1944490   3.827   2.176   8.655
   45DIO     F644491   3.765   2.295   8.641
   45DIO    C2044492   4.169   2.024   8.538
   45DIO     O344493   4.238   1.907   8.582
   45DIO    C2144494   4.282   1.917   8.717
   45DIO    C2244495   4.371   2.039   8.737
   45DIO    C2344496   4.290   2.160   8.690
   45DIO     O444497   4.246   2.143   8.556
   45DIO    C2444498   4.504   2.031   8.658
   45DIO    C2544499   4.594   1.912   8.692
   45DIO    C2644500   4.633   1.905   8.839
   45DIO     H144501   2.912   2.116   8.626
   45DIO     H244502   2.953   1.882   8.999
   45DIO     H344503   3.130   1.772   8.807
   45DIO     H444504   3.382   1.773   8.777
   45DIO     H544505   3.381   2.208   8.742
   45DIO     H644506   3.990   1.817   8.610
   45DIO     H744507   4.002   2.251   8.547
   45DIO     H844508   4.159   2.012   8.429
   45DIO     H944509   4.195   1.921   8.784
   45DIO    H1044510   4.335   1.825   8.742
   45DIO    H1144511   4.393   2.051   8.843
   45DIO    H1244512   4.351   2.251   8.694
   45DIO    H1344513   4.204   2.178   8.756
   45DIO    H1444514   4.484   2.028   8.550
   45DIO    H1544515   4.560   2.123   8.676
   45DIO    H1644516   4.547   1.818   8.662
   45DIO    H1744517   4.686   1.921   8.633
   45DIO    H1844518   4.677   1.999   8.874
   45DIO    H1944519   4.546   1.882   8.902
   45DIO    H2044520   4.706   1.825   8.855
   46DIO     F144521   3.786   7.168   3.640
   46DIO     C144522   3.863   7.090   3.717
   46DIO     C244523   4.007   7.094   3.701
   46DIO     C344524   4.096   7.009   3.782
   46DIO     C444525   4.031   6.921   3.882
   46DIO     C544526   3.886   6.918   3.897
   46DIO     F244527   3.831   6.840   3.991
   46DIO     C644528   3.803   7.003   3.815
   46DIO     F344529   3.669   6.999   3.829
   46DIO     C744530   4.243   7.011   3.767
   46DIO     C844531   4.320   6.886   3.749
   46DIO     C944532   4.464   6.887   3.734
   46DIO    C1044533   4.537   7.013   3.746
   46DIO    C1144534   4.465   7.138   3.756
   46DIO    C1244535   4.320   7.136   3.768
   46DIO     F444536   4.256   7.253   3.782
   46DIO     O144537   4.669   7.010   3.707
   46DIO    C1344538   4.764   7.090   3.771
   46DIO     O244539   4.765   7.149   3.882
   46DIO    C1444540   4.893   7.091   3.701
   46DIO    C1544541   4.959   6.967   3.657
   46DIO     F544542   4.897   6.848   3.672
   46DIO    C1644543   5.090   6.965   3.594
   46DIO    C1744544   5.166   7.089   3.579
   46DIO    C1844545   5.097   7.215   3.605
   46DIO    C1944546   4.965   7.216   3.667
   46DIO     F644547   4.903   7.335   3.675
   46DIO    C2044548   5.306   7.088   3.524
   46DIO     O344549   5.376   6.965   3.546
   46DIO    C2144550   5.420   6.950   3.680
   46DIO    C2244551   5.509   7.066   3.722
   46DIO    C2344552   5.428   7.194   3.699
   46DIO     O444553   5.384   7.202   3.564
   46DIO    C2444554   5.642   7.073   3.644
   46DIO    C2544555   5.732   6.950   3.655
   46DIO    C2644556   5.771   6.915   3.798
   46DIO     H144557   4.050   7.162   3.628
   46DIO     H244558   4.091   6.863   3.951
   46DIO     H344559   4.268   6.791   3.742
   46DIO     H444560   4.520   6.797   3.713
   46DIO     H544561   4.519   7.231   3.759
   46DIO     H644562   5.128   6.871   3.557
   46DIO     H744563   5.140   7.309   3.575
   46DIO     H844564   5.297   7.097   3.415
   46DIO     H944565   5.333   6.942   3.747
   46DIO    H1044566   5.473   6.854   3.688
   46DIO    H1144567   5.531   7.058   3.829
   46DIO    H1244568   5.489   7.283   3.719
   46DIO    H1344569   5.342   7.199   3.767
   46DIO    H1444570   5.622   7.090   3.537
   46DIO    H1544571   5.698   7.160   3.678
   46DIO    H1644572   5.685   6.863   3.608
   46DIO    H1744573   5.824   6.969   3.598
   46DIO    H1844574   5.815   7.001   3.849
   46DIO    H1944575   5.684   6.881   3.856
   46DIO    H2044576   5.844   6.834   3.799
   47DIO     F144577   2.573   4.910   6.284
   47DIO     C144578   2.651   4.808   6.242
   47DIO     C244579   2.795   4.825   6.240
   47DIO     C344580   2.884   4.717   6.192
   47DIO     C444581   2.818   4.591   6.149
   47DIO     C544582   2.674   4.577   6.152
   47DIO     F244583   2.618   4.459   6.117
   47DIO     C644584   2.590   4.684   6.199
   47DIO     F344585   2.456   4.670   6.201
   47DIO     C744586   3.030   4.732   6.188
   47DIO     C844587   3.107   4.700   6.065
   47DIO     C944588   3.252   4.715   6.061
   47DIO    C1044589   3.324   4.752   6.181
   47DIO    C1144590   3.252   4.791   6.301
   47DIO    C1244591   3.108   4.779   6.304
   47DIO     F444592   3.043   4.811   6.418
   47DIO     O144593   3.457   4.787   6.164
   47DIO    C1344594   3.551   4.759   6.263
   47DIO     O244595   3.552   4.679   6.360
   47DIO    C1444596   3.680   4.824   6.237
   47DIO    C1544597   3.746   4.816   6.105
   47DIO     F544598   3.684   4.757   6.001
   47DIO    C1644599   3.877   4.874   6.080
   47DIO    C1744600   3.953   4.936   6.188
   47DIO    C1844601   3.884   4.960   6.314
   47DIO    C1944602   3.753   4.903   6.339
   47DIO     F644603   3.690   4.942   6.452
   47DIO    C2044604   4.094   4.986   6.166
   47DIO     O344605   4.163   4.919   6.060
   47DIO    C2144606   4.207   4.789   6.098
   47DIO    C2244607   4.296   4.795   6.222
   47DIO    C2344608   4.215   4.865   6.331
   47DIO     O444609   4.171   4.993   6.286
   47DIO    C2444610   4.429   4.870   6.198
   47DIO    C2544611   4.519   4.812   6.089
   47DIO    C2644612   4.558   4.666   6.112
   47DIO     H144613   2.837   4.919   6.274
   47DIO     H244614   2.879   4.505   6.122
   47DIO     H344615   3.056   4.670   5.975
   47DIO     H444616   3.307   4.700   5.970
   47DIO     H544617   3.306   4.824   6.388
   47DIO     H644618   3.915   4.872   5.978
   47DIO     H744619   3.927   5.024   6.390
   47DIO     H844620   4.084   5.090   6.132
   47DIO     H944621   4.120   4.724   6.116
   47DIO    H1044622   4.260   4.745   6.013
   47DIO    H1144623   4.319   4.693   6.256
   47DIO    H1244624   4.276   4.881   6.420
   47DIO    H1344625   4.129   4.805   6.361
   47DIO    H1444626   4.409   4.975   6.173
   47DIO    H1544627   4.485   4.871   6.292
   47DIO    H1644628   4.472   4.822   5.990
   47DIO    H1744629   4.611   4.872   6.085
   47DIO    H1844630   4.602   4.652   6.211
   47DIO    H1944631   4.471   4.600   6.102
   47DIO    H2044632   4.632   4.635   6.037
   48DIO     F144633   6.306   7.240   0.207
   48DIO     C144634   6.384   7.279   0.310
   48DIO     C244635   6.528   7.266   0.299
   48DIO     C344636   6.617   7.304   0.411
   48DIO     C444637   6.551   7.359   0.532
   48DIO     C544638   6.407   7.371   0.541
   48DIO     F244639   6.351   7.426   0.651
   48DIO     C644640   6.323   7.332   0.430
   48DIO     F344641   6.189   7.343   0.439
   48DIO     C744642   6.763   7.291   0.403
   48DIO     C844643   6.840   7.223   0.510
   48DIO     C944644   6.985   7.210   0.502
   48DIO    C1044645   7.057   7.273   0.393
   48DIO    C1144646   6.985   7.333   0.282
   48DIO    C1244647   6.841   7.344   0.289
   48DIO     F444648   6.776   7.405   0.188
   48DIO     O144649   7.190   7.236   0.379
   48DIO    C1344650   7.284   7.327   0.332
   48DIO     O244651   7.285   7.453   0.324
   48DIO    C1444652   7.413   7.264   0.302
   48DIO    C1544653   7.479   7.173   0.398
   48DIO     F544654   7.417   7.138   0.512
   48DIO    C1644655   7.610   7.115   0.373
   48DIO    C1744656   7.686   7.152   0.254
   48DIO    C1844657   7.617   7.228   0.150
   48DIO    C1944658   7.486   7.284   0.175
   48DIO     F644659   7.423   7.341   0.069
   48DIO    C2044660   7.827   7.101   0.232
   48DIO     O344661   7.896   7.071   0.354
   48DIO    C2144662   7.940   7.187   0.423
   48DIO    C2244663   8.029   7.273   0.334
   48DIO    C2344664   7.948   7.304   0.208
   48DIO     O444665   7.904   7.184   0.145
   48DIO    C2444666   8.162   7.204   0.296
   48DIO    C2544667   8.252   7.164   0.413
   48DIO    C2644668   8.291   7.280   0.503
   48DIO     H144669   6.570   7.226   0.208
   48DIO     H244670   6.612   7.399   0.613
   48DIO     H344671   6.789   7.178   0.593
   48DIO     H444672   7.040   7.154   0.576
   48DIO     H544673   7.039   7.375   0.198
   48DIO     H644674   7.648   7.042   0.444
   48DIO     H744675   7.660   7.239   0.052
   48DIO     H844676   7.817   7.005   0.180
   48DIO     H944677   7.853   7.244   0.458
   48DIO    H1044678   7.993   7.155   0.513
   48DIO    H1144679   8.052   7.368   0.385
   48DIO    H1244680   8.009   7.359   0.135
   48DIO    H1344681   7.862   7.368   0.231
   48DIO    H1444682   8.142   7.114   0.236
   48DIO    H1544683   8.218   7.272   0.230
   48DIO    H1644684   8.205   7.086   0.472
   48DIO    H1744685   8.344   7.120   0.371
   48DIO    H1844686   8.335   7.363   0.445
   48DIO    H1944687   8.204   7.319   0.558
   48DIO    H2044688   8.365   7.248   0.577
   49DIO     F144689   7.142   1.072   6.442
   49DIO     C144690   7.220   1.182   6.437
   49DIO     C244691   7.364   1.168   6.446
   49DIO     C344692   7.452   1.286   6.443
   49DIO     C444693   7.387   1.418   6.428
   49DIO     C544694   7.243   1.430   6.418
   49DIO     F244695   7.187   1.551   6.400
   49DIO     C644696   7.159   1.312   6.422
   49DIO     F344697   7.025   1.324   6.415
   49DIO     C744698   7.599   1.274   6.453
   49DIO     C844699   7.676   1.355   6.550
   49DIO     C944700   7.821   1.344   6.560
   49DIO    C1044701   7.893   1.259   6.467
   49DIO    C1144702   7.821   1.172   6.376
   49DIO    C1244703   7.677   1.182   6.368
   49DIO     F444704   7.612   1.104   6.279
   49DIO     O144705   8.025   1.234   6.498
   49DIO    C1344706   8.120   1.218   6.397
   49DIO     O244707   8.121   1.248   6.275
   49DIO    C1444708   8.249   1.170   6.448
   49DIO    C1544709   8.315   1.234   6.564
   49DIO     F544710   8.253   1.332   6.632
   49DIO    C1644711   8.446   1.192   6.612
   49DIO    C1744712   8.522   1.090   6.541
   49DIO    C1844713   8.453   1.014   6.437
   49DIO    C1944714   8.322   1.055   6.390
   49DIO     F644715   8.259   0.971   6.304
   49DIO    C2044716   8.663   1.054   6.582
   49DIO     O344717   8.732   1.160   6.648
   49DIO    C2144718   8.776   1.261   6.558
   49DIO    C2244719   8.865   1.203   6.449
   49DIO    C2344720   8.784   1.092   6.381
   49DIO     O444721   8.740   0.996   6.476
   49DIO    C2444722   8.998   1.145   6.503
   49DIO    C2544723   9.088   1.245   6.577
   49DIO    C2644724   9.127   1.366   6.494
   49DIO     H144725   7.406   1.069   6.455
   49DIO     H244726   7.448   1.507   6.415
   49DIO     H344727   7.624   1.421   6.619
   49DIO     H444728   7.876   1.397   6.636
   49DIO     H544729   7.875   1.105   6.311
   49DIO     H644730   8.484   1.237   6.703
   49DIO     H744731   8.496   0.923   6.396
   49DIO     H844732   8.653   0.975   6.657
   49DIO     H944733   8.689   1.312   6.514
   49DIO    H1044734   8.829   1.337   6.616
   49DIO    H1144735   8.887   1.280   6.375
   49DIO    H1244736   8.845   1.040   6.307
   49DIO    H1344737   8.698   1.134   6.327
   49DIO    H1444738   8.978   1.061   6.571
   49DIO    H1544739   9.054   1.104   6.419
   49DIO    H1644740   9.041   1.277   6.670
   49DIO    H1744741   9.180   1.192   6.606
   49DIO    H1844742   9.171   1.336   6.398
   49DIO    H1944743   9.040   1.430   6.474
   49DIO    H2044744   9.200   1.426   6.548
   50DIO     F144745   4.560   7.360   2.731
   50DIO     C144746   4.638   7.456   2.678
   50DIO     C244747   4.782   7.448   2.693
   50DIO     C344748   4.871   7.553   2.638
   50DIO     C444749   4.805   7.665   2.567
   50DIO     C544750   4.661   7.671   2.554
   50DIO     F244751   4.606   7.773   2.485
   50DIO     C644752   4.577   7.567   2.609
   50DIO     F344753   4.443   7.575   2.597
   50DIO     C744754   5.017   7.547   2.653
   50DIO     C844755   5.094   7.662   2.705
   50DIO     C944756   5.239   7.656   2.719
   50DIO    C1044757   5.312   7.539   2.672
   50DIO    C1144758   5.239   7.421   2.628
   50DIO    C1244759   5.095   7.426   2.617
   50DIO     F444760   5.030   7.318   2.570
   50DIO     O144761   5.444   7.530   2.711
   50DIO    C1344762   5.538   7.471   2.627
   50DIO     O244763   5.539   7.446   2.504
   50DIO    C1444764   5.667   7.451   2.693
   50DIO    C1544765   5.734   7.558   2.770
   50DIO     F544766   5.671   7.676   2.789
   50DIO    C1644767   5.864   7.542   2.831
   50DIO    C1744768   5.940   7.419   2.812
   50DIO    C1844769   5.871   7.305   2.751
   50DIO    C1944770   5.740   7.322   2.692
   50DIO     F644771   5.677   7.209   2.651
   50DIO    C2044772   6.081   7.404   2.865
   50DIO     O344773   6.151   7.529   2.878
   50DIO    C2144774   6.194   7.581   2.753
   50DIO    C2244775   6.283   7.481   2.680
   50DIO    C2344776   6.202   7.352   2.667
   50DIO     O444777   6.158   7.306   2.795
   50DIO    C2444778   6.416   7.453   2.754
   50DIO    C2544779   6.507   7.574   2.777
   50DIO    C2644780   6.545   7.647   2.649
   50DIO     H144781   4.825   7.363   2.744
   50DIO     H244782   4.866   7.740   2.517
   50DIO     H344783   5.043   7.751   2.738
   50DIO     H444784   5.294   7.737   2.764
   50DIO     H544785   5.293   7.332   2.599
   50DIO     H644786   5.903   7.622   2.894
   50DIO     H744787   5.914   7.206   2.754
   50DIO     H844788   6.071   7.366   2.967
   50DIO     H944789   6.108   7.607   2.692
   50DIO    H1044790   6.247   7.675   2.772
   50DIO    H1144791   6.306   7.518   2.580
   50DIO    H1244792   6.264   7.272   2.623
   50DIO    H1344793   6.116   7.366   2.601
   50DIO    H1444794   6.396   7.406   2.851
   50DIO    H1544795   6.472   7.378   2.696
   50DIO    H1644796   6.459   7.644   2.847
   50DIO    H1744797   6.598   7.539   2.826
   50DIO    H1844798   6.589   7.579   2.576
   50DIO    H1944799   6.459   7.696   2.604
   50DIO    H2044800   6.619   7.725   2.672
   51DIO     F144801   0.188   5.978   5.894
   51DIO     C144802   0.266   5.880   5.942
   51DIO     C244803   0.410   5.889   5.928
   51DIO     C344804   0.499   5.781   5.977
   51DIO     C444805   0.433   5.666   6.044
   51DIO     C544806   0.289   5.659   6.056
   51DIO     F244807   0.234   5.555   6.121
   51DIO     C644808   0.205   5.766   6.006
   51DIO     F344809   0.072   5.757   6.018
   51DIO     C744810   0.645   5.788   5.963
   51DIO     C844811   0.722   5.676   5.906
   51DIO     C944812   0.867   5.682   5.892
   51DIO    C1044813   0.940   5.797   5.944
   51DIO    C1144814   0.867   5.913   5.994
   51DIO    C1244815   0.723   5.907   6.005
   51DIO     F444816   0.658   6.013   6.056
   51DIO     O144817   1.072   5.807   5.906
   51DIO    C1344818   1.166   5.862   5.993
   51DIO     O244819   1.167   5.882   6.117
   51DIO    C1444820   1.296   5.886   5.927
   51DIO    C1544821   1.362   5.782   5.845
   51DIO     F544822   1.299   5.665   5.821
   51DIO    C1644823   1.493   5.801   5.785
   51DIO    C1744824   1.568   5.923   5.810
   51DIO    C1844825   1.500   6.034   5.876
   51DIO    C1944826   1.368   6.015   5.934
   51DIO     F644827   1.306   6.125   5.981
   51DIO    C2044828   1.709   5.940   5.758
   51DIO     O344829   1.779   5.816   5.739
   51DIO    C2144830   1.823   5.759   5.862
   51DIO    C2244831   1.911   5.856   5.939
   51DIO    C2344832   1.831   5.984   5.958
   51DIO     O444833   1.786   6.035   5.832
   51DIO    C2444834   2.044   5.887   5.867
   51DIO    C2544835   2.135   5.767   5.838
   51DIO    C2644836   2.173   5.688   5.962
   51DIO     H144837   0.453   5.976   5.880
   51DIO     H244838   0.494   5.589   6.090
   51DIO     H344839   0.671   5.588   5.869
   51DIO     H444840   0.922   5.603   5.843
   51DIO     H544841   0.922   6.000   6.027
   51DIO     H644842   1.531   5.724   5.719
   51DIO     H744843   1.543   6.133   5.877
   51DIO     H844844   1.699   5.983   5.657
   51DIO     H944845   1.736   5.730   5.922
   51DIO    H1044846   1.875   5.666   5.838
   51DIO    H1144847   1.934   5.813   6.038
   51DIO    H1244848   1.892   6.061   6.005
   51DIO    H1344849   1.745   5.967   6.023
   51DIO    H1444850   2.024   5.937   5.771
   51DIO    H1544851   2.101   5.959   5.928
   51DIO    H1644852   2.088   5.700   5.765
   51DIO    H1744853   2.227   5.803   5.790
   51DIO    H1844854   2.217   5.753   6.038
   51DIO    H1944855   2.087   5.637   6.006
   51DIO    H2044856   2.247   5.611   5.937
   52DIO     F144857   2.823   2.632   7.778
   52DIO     C144858   2.901   2.729   7.829
   52DIO     C244859   3.045   2.712   7.829
   52DIO     C344860   3.134   2.816   7.886
   52DIO     C444861   3.068   2.938   7.939
   52DIO     C544862   2.924   2.953   7.937
   52DIO     F244863   2.869   3.067   7.982
   52DIO     C644864   2.840   2.849   7.882
   52DIO     F344865   2.707   2.863   7.881
   52DIO     C744866   3.280   2.801   7.889
   52DIO     C844867   3.357   2.822   8.014
   52DIO     C944868   3.502   2.807   8.016
   52DIO    C1044869   3.575   2.780   7.894
   52DIO    C1144870   3.502   2.751   7.771
   52DIO    C1244871   3.358   2.763   7.769
   52DIO     F444872   3.293   2.741   7.653
   52DIO     O144873   3.707   2.744   7.908
   52DIO    C1344874   3.801   2.780   7.812
   52DIO     O244875   3.802   2.868   7.722
   52DIO    C1444876   3.930   2.713   7.832
   52DIO    C1544877   3.997   2.710   7.964
   52DIO     F544878   3.934   2.761   8.073
   52DIO    C1644879   4.128   2.651   7.985
   52DIO    C1744880   4.203   2.598   7.872
   52DIO    C1844881   4.135   2.584   7.744
   52DIO    C1944882   4.003   2.642   7.724
   52DIO     F644883   3.940   2.614   7.608
   52DIO    C2044884   4.344   2.546   7.890
   52DIO     O344885   4.414   2.604   8.000
   52DIO    C2144886   4.457   2.737   7.973
   52DIO    C2244887   4.546   2.741   7.850
   52DIO    C2344888   4.466   2.680   7.735
   52DIO     O444889   4.421   2.549   7.769
   52DIO    C2444890   4.679   2.664   7.868
   52DIO    C2544891   4.770   2.713   7.981
   52DIO    C2644892   4.808   2.860   7.970
   52DIO     H144893   3.088   2.622   7.788
   52DIO     H244894   3.129   3.022   7.973
   52DIO     H344895   3.306   2.845   8.106
   52DIO     H444896   3.557   2.815   8.109
   52DIO     H544897   3.557   2.726   7.681
   52DIO     H644898   4.166   2.644   8.086
   52DIO     H744899   4.177   2.526   7.664
   52DIO     H844900   4.334   2.439   7.915
   52DIO     H944901   4.371   2.803   7.961
   52DIO    H1044902   4.510   2.774   8.062
   52DIO    H1144903   4.569   2.845   7.824
   52DIO    H1244904   4.527   2.672   7.645
   52DIO    H1344905   4.379   2.743   7.710
   52DIO    H1444906   4.659   2.558   7.884
   52DIO    H1544907   4.736   2.671   7.774
   52DIO    H1644908   4.722   2.695   8.078
   52DIO    H1744909   4.862   2.653   7.980
   52DIO    H1844910   4.852   2.882   7.873
   52DIO    H1944911   4.722   2.925   7.985
   52DIO    H2044912   4.882   2.885   8.047
   53DIO     F144913   7.661   7.073   7.546
   53DIO     C144914   7.738   7.140   7.459
   53DIO     C244915   7.882   7.138   7.476
   53DIO     C344916   7.971   7.213   7.383
   53DIO     C444917   7.906   7.286   7.273
   53DIO     C544918   7.761   7.287   7.258
   53DIO     F244919   7.706   7.352   7.154
   53DIO     C644920   7.678   7.214   7.350
   53DIO     F344921   7.544   7.216   7.336
   53DIO     C744922   8.118   7.213   7.399
   53DIO     C844923   8.195   7.339   7.400
   53DIO     C944924   8.339   7.339   7.415
   53DIO    C1044925   8.412   7.214   7.420
   53DIO    C1144926   8.339   7.088   7.427
   53DIO    C1244927   8.195   7.088   7.415
   53DIO     F444928   8.130   6.970   7.416
   53DIO     O144929   8.544   7.221   7.459
   53DIO    C1344930   8.639   7.133   7.406
   53DIO     O244931   8.640   7.060   7.303
   53DIO    C1444932   8.768   7.141   7.475
   53DIO    C1544933   8.834   7.271   7.502
   53DIO     F544934   8.771   7.386   7.471
   53DIO    C1644935   8.965   7.281   7.564
   53DIO    C1744936   9.041   7.160   7.596
   53DIO    C1844937   8.972   7.032   7.587
   53DIO    C1944938   8.840   7.023   7.526
   53DIO     F644939   8.778   6.903   7.533
   53DIO    C2044940   9.181   7.168   7.650
   53DIO     O344941   9.251   7.287   7.612
   53DIO    C2144942   9.295   7.284   7.477
   53DIO    C2244943   9.384   7.163   7.451
   53DIO    C2344944   9.303   7.040   7.491
   53DIO     O444945   9.259   7.050   7.626
   53DIO    C2444946   9.516   7.167   7.530
   53DIO    C2544947   9.607   7.288   7.501
   53DIO    C2644948   9.646   7.303   7.355
   53DIO     H144949   7.925   7.081   7.557
   53DIO     H244950   7.966   7.334   7.197
   53DIO     H344951   8.143   7.434   7.394
   53DIO     H444952   8.394   7.432   7.424
   53DIO     H544953   8.394   6.995   7.436
   53DIO     H644954   9.003   7.379   7.589
   53DIO     H744955   9.015   6.942   7.630
   53DIO     H844956   9.172   7.175   7.760
   53DIO     H944957   9.208   7.284   7.410
   53DIO    H1044958   9.348   7.378   7.457
   53DIO    H1144959   9.406   7.157   7.344
   53DIO    H1244960   9.364   6.949   7.483
   53DIO    H1344961   9.217   7.026   7.425
   53DIO    H1444962   9.497   7.165   7.637
   53DIO    H1544963   9.573   7.076   7.507
   53DIO    H1644964   9.560   7.380   7.537
   53DIO    H1744965   9.699   7.276   7.561
   53DIO    H1844966   9.689   7.211   7.316
   53DIO    H1944967   9.559   7.329   7.294
   53DIO    H2044968   9.719   7.383   7.344
   54DIO     F144969   3.766   1.799   9.323
   54DIO     C144970   3.844   1.721   9.400
   54DIO     C244971   3.988   1.725   9.384
   54DIO     C344972   4.076   1.639   9.465
   54DIO     C444973   4.011   1.551   9.565
   54DIO     C544974   3.867   1.549   9.580
   54DIO     F244975   3.811   1.471   9.674
   54DIO     C644976   3.783   1.633   9.498
   54DIO     F344977   3.649   1.629   9.512
   54DIO     C744978   4.223   1.641   9.449
   54DIO     C844979   4.300   1.516   9.432
   54DIO     C944980   4.445   1.518   9.417
   54DIO    C1044981   4.517   1.643   9.429
   54DIO    C1144982   4.445   1.768   9.438
   54DIO    C1244983   4.301   1.767   9.451
   54DIO     F444984   4.236   1.884   9.465
   54DIO     O144985   4.649   1.641   9.390
   54DIO    C1344986   4.744   1.721   9.454
   54DIO     O244987   4.745   1.780   9.565
   54DIO    C1444988   4.873   1.722   9.384
   54DIO    C1544989   4.939   1.597   9.340
   54DIO     F544990   4.877   1.478   9.355
   54DIO    C1644991   5.070   1.596   9.277
   54DIO    C1744992   5.146   1.719   9.261
   54DIO    C1844993   5.077   1.845   9.288
   54DIO    C1944994   4.946   1.846   9.350
   54DIO     F644995   4.883   1.966   9.358
   54DIO    C2044996   5.287   1.718   9.207
   54DIO     O344997   5.356   1.595   9.229
   54DIO    C2144998   5.400   1.580   9.363
   54DIO    C2244999   5.489   1.697   9.405
   54DIO    C2345000   5.408   1.824   9.382
   54DIO     O445001   5.364   1.832   9.246
   54DIO    C2445002   5.622   1.703   9.326
   54DIO    C2545003   5.712   1.580   9.338
   54DIO    C2645004   5.751   1.546   9.481
   54DIO     H145005   4.030   1.792   9.310
   54DIO     H245006   4.072   1.493   9.634
   54DIO     H345007   4.248   1.421   9.425
   54DIO     H445008   4.500   1.427   9.396
   54DIO     H545009   4.499   1.862   9.442
   54DIO     H645010   5.108   1.502   9.240
   54DIO     H745011   5.120   1.940   9.257
   54DIO     H845012   5.277   1.727   9.098
   54DIO     H945013   5.313   1.572   9.430
   54DIO    H1045014   5.453   1.485   9.371
   54DIO    H1145015   5.511   1.689   9.512
   54DIO    H1245016   5.469   1.913   9.402
   54DIO    H1345017   5.322   1.829   9.449
   54DIO    H1445018   5.602   1.720   9.220
   54DIO    H1545019   5.678   1.791   9.361
   54DIO    H1645020   5.665   1.493   9.291
   54DIO    H1745021   5.804   1.600   9.281
   54DIO    H1845022   5.795   1.632   9.532
   54DIO    H1945023   5.664   1.511   9.539
   54DIO    H2045024   5.824   1.465   9.482
   55DIO     F145025   7.460   5.769   3.974
   55DIO     C145026   7.538   5.780   3.864
   55DIO     C245027   7.682   5.787   3.879
   55DIO     C345028   7.771   5.802   3.762
   55DIO     C445029   7.705   5.807   3.629
   55DIO     C545030   7.561   5.799   3.616
   55DIO     F245031   7.506   5.800   3.494
   55DIO     C645032   7.477   5.786   3.733
   55DIO     F345033   7.344   5.780   3.720
   55DIO     C745034   7.917   5.810   3.776
   55DIO     C845035   7.994   5.918   3.710
   55DIO     C945036   8.139   5.926   3.723
   55DIO    C1045037   8.212   5.822   3.793
   55DIO    C1145038   8.139   5.719   3.865
   55DIO    C1245039   7.995   5.712   3.854
   55DIO     F445040   7.930   5.613   3.917
   55DIO     O145041   8.344   5.848   3.822
   55DIO    C1345042   8.438   5.746   3.823
   55DIO     O245043   8.439   5.630   3.774
   55DIO    C1445044   8.567   5.789   3.877
   55DIO    C1545045   8.634   5.914   3.832
   55DIO     F545046   8.571   5.996   3.745
   55DIO    C1645047   8.765   5.954   3.880
   55DIO    C1745048   8.840   5.869   3.971
   55DIO    C1845049   8.772   5.755   4.030
   55DIO    C1945050   8.640   5.715   3.983
   55DIO     F645051   8.577   5.617   4.052
   55DIO    C2045052   8.981   5.905   4.013
   55DIO     O345053   9.051   5.986   3.917
   55DIO    C2145054   9.094   5.912   3.804
   55DIO    C2245055   9.183   5.795   3.845
   55DIO    C2345056   9.103   5.712   3.944
   55DIO     O445057   9.058   5.791   4.054
   55DIO    C2445058   9.316   5.840   3.910
   55DIO    C2545059   9.407   5.928   3.823
   55DIO    C2645060   9.445   5.864   3.691
   55DIO     H145061   7.725   5.782   3.979
   55DIO     H245062   7.766   5.807   3.539
   55DIO     H345063   7.943   5.996   3.655
   55DIO     H445064   8.194   6.010   3.682
   55DIO     H545065   8.194   5.644   3.921
   55DIO     H645066   8.803   6.051   3.850
   55DIO     H745067   8.814   5.701   4.113
   55DIO     H845068   8.971   5.967   4.102
   55DIO     H945069   9.008   5.876   3.747
   55DIO    H1045070   9.147   5.981   3.737
   55DIO    H1145071   9.206   5.734   3.757
   55DIO    H1245072   9.164   5.630   3.985
   55DIO    H1345073   9.016   5.665   3.895
   55DIO    H1445074   9.296   5.895   4.003
   55DIO    H1545075   9.373   5.751   3.939
   55DIO    H1645076   9.359   6.025   3.805
   55DIO    H1745077   9.499   5.949   3.880
   55DIO    H1845078   9.489   5.765   3.706
   55DIO    H1945079   9.359   5.854   3.624
   55DIO    H2045080   9.519   5.926   3.639
   56DIO     F145081   7.020   4.217   7.956
   56DIO     C145082   7.098   4.317   8.001
   56DIO     C245083   7.242   4.300   8.003
   56DIO     C345084   7.331   4.407   8.054
   56DIO     C445085   7.265   4.532   8.100
   56DIO     C545086   7.121   4.546   8.097
   56DIO     F245087   7.066   4.663   8.136
   56DIO     C645088   7.037   4.440   8.047
   56DIO     F345089   6.904   4.454   8.046
   56DIO     C745090   7.477   4.392   8.057
   56DIO     C845091   7.554   4.420   8.181
   56DIO     C945092   7.699   4.405   8.184
   56DIO    C1045093   7.772   4.372   8.063
   56DIO    C1145094   7.699   4.336   7.942
   56DIO    C1245095   7.555   4.348   7.940
   56DIO     F445096   7.490   4.319   7.825
   56DIO     O145097   7.904   4.336   8.079
   56DIO    C1345098   7.998   4.367   7.982
   56DIO     O245099   7.999   4.450   7.887
   56DIO    C1445100   8.127   4.302   8.005
   56DIO    C1545101   8.194   4.305   8.138
   56DIO     F545102   8.131   4.362   8.243
   56DIO    C1645103   8.325   4.247   8.161
   56DIO    C1745104   8.400   4.188   8.052
   56DIO    C1845105   8.332   4.168   7.925
   56DIO    C1945106   8.200   4.225   7.902
   56DIO     F645107   8.137   4.190   7.787
   56DIO    C2045108   8.541   4.137   8.072
   56DIO     O345109   8.611   4.202   8.179
   56DIO    C2145110   8.654   4.333   8.145
   56DIO    C2245111   8.743   4.330   8.021
   56DIO    C2345112   8.663   4.263   7.910
   56DIO     O445113   8.618   4.134   7.952
   56DIO    C2445114   8.876   4.255   8.043
   56DIO    C2545115   8.967   4.310   8.154
   56DIO    C2645116   9.005   4.455   8.135
   56DIO     H145117   7.285   4.208   7.966
   56DIO     H245118   7.326   4.617   8.129
   56DIO     H345119   7.503   4.448   8.272
   56DIO     H445120   7.754   4.418   8.276
   56DIO     H545121   7.754   4.306   7.854
   56DIO     H645122   8.363   4.246   8.263
   56DIO     H745123   8.374   4.105   7.847
   56DIO     H845124   8.531   4.032   8.103
   56DIO     H945125   8.568   4.398   8.129
   56DIO    H1045126   8.707   4.374   8.232
   56DIO    H1145127   8.766   4.433   7.991
   56DIO    H1245128   8.724   4.250   7.821
   56DIO    H1345129   8.576   4.324   7.882
   56DIO    H1445130   8.856   4.149   8.066
   56DIO    H1545131   8.933   4.256   7.949
   56DIO    H1645132   8.919   4.296   8.252
   56DIO    H1745133   9.059   4.249   8.156
   56DIO    H1845134   9.049   4.472   8.036
   56DIO    H1945135   8.919   4.521   8.147
   56DIO    H2045136   9.079   4.485   8.211
   57DIO     F145137   0.277   7.803   8.699
   57DIO     C145138   0.354   7.715   8.633
   57DIO     C245139   0.498   7.732   8.635
   57DIO     C345140   0.587   7.638   8.562
   57DIO     C445141   0.522   7.526   8.490
   57DIO     C545142   0.377   7.512   8.490
   57DIO     F245143   0.322   7.407   8.427
   57DIO     C645144   0.294   7.605   8.561
   57DIO     F345145   0.160   7.591   8.560
   57DIO     C745146   0.734   7.654   8.562
   57DIO     C845147   0.811   7.653   8.436
   57DIO     C945148   0.955   7.668   8.435
   57DIO    C1045149   1.028   7.675   8.561
   57DIO    C1145150   0.955   7.684   8.686
   57DIO    C1245151   0.811   7.671   8.686
   57DIO     F445152   0.746   7.675   8.804
   57DIO     O145153   1.160   7.713   8.553
   57DIO    C1345154   1.255   7.662   8.641
   57DIO     O245155   1.256   7.561   8.716
   57DIO    C1445156   1.384   7.731   8.632
   57DIO    C1545157   1.450   7.756   8.502
   57DIO     F545158   1.387   7.723   8.387
   57DIO    C1645159   1.581   7.818   8.491
   57DIO    C1745160   1.657   7.852   8.611
   57DIO    C1845161   1.588   7.844   8.740
   57DIO    C1945162   1.456   7.784   8.750
   57DIO     F645163   1.394   7.793   8.869
   57DIO    C2045164   1.797   7.906   8.602
   57DIO     O345165   1.867   7.866   8.484
   57DIO    C2145166   1.911   7.730   8.489
   57DIO    C2245167   2.000   7.706   8.610
   57DIO    C2345168   1.919   7.749   8.733
   57DIO     O445169   1.875   7.883   8.721
   57DIO    C2445170   2.132   7.785   8.605
   57DIO    C2545171   2.223   7.755   8.485
   57DIO    C2645172   2.262   7.609   8.472
   57DIO     H145173   0.541   7.814   8.691
   57DIO     H245174   0.582   7.450   8.443
   57DIO     H345175   0.759   7.646   8.341
   57DIO     H445176   1.010   7.676   8.343
   57DIO     H545177   1.010   7.695   8.779
   57DIO     H645178   1.619   7.841   8.393
   57DIO     H745179   1.631   7.889   8.829
   57DIO     H845180   1.788   8.015   8.594
   57DIO     H945181   1.824   7.664   8.491
   57DIO    H1045182   1.964   7.709   8.396
   57DIO    H1145183   2.022   7.599   8.618
   57DIO    H1245184   1.980   7.742   8.824
   57DIO    H1345185   1.833   7.682   8.748
   57DIO    H1445186   2.113   7.893   8.606
   57DIO    H1545187   2.189   7.764   8.697
   57DIO    H1645188   2.176   7.789   8.392
   57DIO    H1745189   2.315   7.814   8.496
   57DIO    H1845190   2.305   7.571   8.565
   57DIO    H1945191   2.175   7.547   8.447
   57DIO    H2045192   2.335   7.596   8.392
   58DIO     F145193   7.995   6.051   2.165
   58DIO     C145194   8.072   5.941   2.155
   58DIO     C245195   8.216   5.957   2.148
   58DIO     C345196   8.305   5.839   2.134
   58DIO     C445197   8.240   5.706   2.130
   58DIO     C545198   8.095   5.694   2.138
   58DIO     F245199   8.040   5.571   2.138
   58DIO     C645200   8.012   5.810   2.151
   58DIO     F345201   7.878   5.797   2.156
   58DIO     C745202   8.451   5.853   2.125
   58DIO     C845203   8.529   5.786   2.018
   58DIO     C945204   8.673   5.799   2.010
   58DIO    C1045205   8.746   5.870   2.114
   58DIO    C1145206   8.673   5.943   2.216
   58DIO    C1245207   8.529   5.932   2.223
   58DIO     F445208   8.464   5.996   2.322
   58DIO     O145209   8.878   5.898   2.087
   58DIO    C1345210   8.973   5.900   2.189
   58DIO     O245211   8.973   5.853   2.306
   58DIO    C1445212   9.102   5.955   2.146
   58DIO    C1545213   9.168   5.908   2.022
   58DIO     F545214   9.105   5.821   1.940
   58DIO    C1645215   9.299   5.956   1.980
   58DIO    C1745216   9.375   6.047   2.065
   58DIO    C1845217   9.306   6.107   2.179
   58DIO    C1945218   9.174   6.061   2.219
   58DIO     F645219   9.112   6.131   2.316
   58DIO    C2045220   9.515   6.089   2.029
   58DIO     O345221   9.585   5.993   1.949
   58DIO    C2145222   9.629   5.880   2.023
   58DIO    C2245223   9.718   5.922   2.140
   58DIO    C2345224   9.637   6.022   2.223
   58DIO     O445225   9.593   6.131   2.142
   58DIO    C2445226   9.850   5.987   2.094
   58DIO    C2545227   9.941   5.899   2.008
   58DIO    C2645228   9.979   5.767   2.072
   58DIO     H145229   8.259   6.056   2.153
   58DIO     H245230   8.300   5.616   2.130
   58DIO     H345231   8.477   5.731   1.941
   58DIO     H445232   8.728   5.757   1.927
   58DIO     H545233   8.728   6.000   2.290
   58DIO     H645234   9.337   5.925   1.884
   58DIO     H745235   9.349   6.191   2.232
   58DIO     H845236   9.506   6.178   1.966
   58DIO     H945237   9.542   5.824   2.060
   58DIO    H1045238   9.681   5.813   1.955
   58DIO    H1145239   9.740   5.835   2.202
   58DIO    H1245240   9.698   6.063   2.304
   58DIO    H1345241   9.551   5.973   2.270
   58DIO    H1445242   9.830   6.080   2.039
   58DIO    H1545243   9.907   6.016   2.184
   58DIO    H1645244   9.894   5.880   1.911
   58DIO    H1745245  10.033   5.955   1.986
   58DIO    H1845246  10.023   5.783   2.171
   58DIO    H1945247   9.893   5.701   2.083
   58DIO    H2045248  10.053   5.715   2.010
   59DIO     F145249   8.013   6.962   3.187
   59DIO     C145250   8.091   6.922   3.290
   59DIO     C245251   8.235   6.919   3.273
   59DIO     C345252   8.324   6.874   3.382
   59DIO     C445253   8.258   6.834   3.509
   59DIO     C545254   8.114   6.838   3.523
   59DIO     F245255   8.058   6.805   3.641
   59DIO     C645256   8.030   6.882   3.414
   59DIO     F345257   7.896   6.884   3.428
   59DIO     C745258   8.470   6.869   3.367
   59DIO     C845259   8.547   6.748   3.402
   59DIO     C945260   8.692   6.743   3.387
   59DIO    C1045261   8.764   6.862   3.347
   59DIO    C1145262   8.692   6.981   3.305
   59DIO    C1245263   8.548   6.984   3.317
   59DIO     F445264   8.483   7.097   3.283
   59DIO     O145265   8.897   6.845   3.312
   59DIO    C1345266   8.991   6.943   3.338
   59DIO     O245267   8.992   7.043   3.416
   59DIO    C1445268   9.120   6.916   3.274
   59DIO    C1545269   9.187   6.785   3.285
   59DIO     F545270   9.124   6.682   3.347
   59DIO    C1645271   9.317   6.758   3.228
   59DIO    C1745272   9.393   6.864   3.163
   59DIO    C1845273   9.324   6.990   3.136
   59DIO    C1945274   9.193   7.016   3.192
   59DIO     F645275   9.130   7.129   3.151
   59DIO    C2045276   9.534   6.841   3.113
   59DIO     O345277   9.604   6.738   3.184
   59DIO    C2145278   9.647   6.778   3.313
   59DIO    C2245279   9.736   6.902   3.304
   59DIO    C2345280   9.655   7.009   3.230
   59DIO     O445281   9.611   6.961   3.104
   59DIO    C2445282   9.869   6.876   3.229
   59DIO    C2545283   9.960   6.768   3.290
   59DIO    C2645284   9.998   6.795   3.435
   59DIO     H145285   8.277   6.951   3.178
   59DIO     H245286   8.319   6.809   3.596
   59DIO     H345287   8.496   6.658   3.434
   59DIO     H445288   8.747   6.652   3.404
   59DIO     H545289   8.746   7.068   3.270
   59DIO     H645290   9.355   6.657   3.232
   59DIO     H745291   9.367   7.064   3.070
   59DIO     H845292   9.524   6.805   3.010
   59DIO     H945293   9.561   6.798   3.377
   59DIO    H1045294   9.700   6.694   3.358
   59DIO    H1145295   9.759   6.938   3.405
   59DIO    H1245296   9.716   7.098   3.213
   59DIO    H1345297   9.569   7.041   3.290
   59DIO    H1445298   9.849   6.848   3.125
   59DIO    H1545299   9.925   6.970   3.225
   59DIO    H1645300   9.912   6.670   3.282
   59DIO    H1745301  10.051   6.763   3.230
   59DIO    H1845302  10.042   6.894   3.446
   59DIO    H1945303   9.911   6.787   3.501
   59DIO    H2045304  10.072   6.721   3.468
   60DIO     F145305   4.078   4.066   7.678
   60DIO     C145306   4.156   3.960   7.707
   60DIO     C245307   4.300   3.971   7.695
   60DIO     C345308   4.389   3.857   7.724
   60DIO     C445309   4.323   3.731   7.768
   60DIO     C545310   4.179   3.722   7.780
   60DIO     F245311   4.123   3.607   7.824
   60DIO     C645312   4.095   3.836   7.750
   60DIO     F345313   3.961   3.826   7.760
   60DIO     C745314   4.535   3.866   7.711
   60DIO     C845315   4.612   3.766   7.635
   60DIO     C945316   4.757   3.775   7.623
   60DIO    C1045317   4.829   3.878   7.694
   60DIO    C1145318   4.757   3.983   7.764
   60DIO    C1245319   4.613   3.975   7.774
   60DIO     F445320   4.548   4.070   7.844
   60DIO     O145321   4.962   3.895   7.659
   60DIO    C1345322   5.056   3.933   7.754
   60DIO     O245323   5.057   3.930   7.880
   60DIO    C1445324   5.185   3.969   7.694
   60DIO    C1545325   5.252   3.881   7.595
   60DIO     F545326   5.189   3.771   7.549
   60DIO    C1645327   5.382   3.911   7.539
   60DIO    C1745328   5.458   4.027   7.586
   60DIO    C1845329   5.389   4.123   7.671
   60DIO    C1945330   5.258   4.094   7.725
   60DIO     F645331   5.195   4.194   7.791
   60DIO    C2045332   5.599   4.053   7.538
   60DIO     O345333   5.669   3.935   7.496
   60DIO    C2145334   5.712   3.855   7.606
   60DIO    C2245335   5.801   3.937   7.700
   60DIO    C2345336   5.720   4.059   7.742
   60DIO     O445337   5.676   4.132   7.628
   60DIO    C2445338   5.934   3.981   7.635
   60DIO    C2545339   6.025   3.868   7.585
   60DIO    C2645340   6.063   3.767   7.692
   60DIO     H145341   4.342   4.066   7.664
   60DIO     H245342   4.384   3.647   7.800
   60DIO     H345343   4.561   3.687   7.582
   60DIO     H445344   4.812   3.706   7.560
   60DIO     H545345   4.811   4.062   7.813
   60DIO     H645346   5.420   3.848   7.460
   60DIO     H745347   5.432   4.221   7.690
   60DIO     H845348   5.589   4.113   7.447
   60DIO     H945349   5.626   3.816   7.660
   60DIO    H1045350   5.765   3.769   7.566
   60DIO    H1145351   5.824   3.877   7.789
   60DIO    H1245352   5.781   4.127   7.803
   60DIO    H1345353   5.634   4.030   7.804
   60DIO    H1445354   5.914   4.048   7.550
   60DIO    H1545355   5.990   4.040   7.708
   60DIO    H1645356   5.977   3.815   7.501
   60DIO    H1745357   6.116   3.913   7.545
   60DIO    H1845358   6.107   3.818   7.779
   60DIO    H1945359   5.976   3.709   7.726
   60DIO    H2045360   6.137   3.697   7.653
   61DIO     F145361   5.236   2.015   5.379
   61DIO     C145362   5.314   2.001   5.270
   61DIO     C245363   5.458   2.011   5.284
   61DIO     C345364   5.547   1.998   5.166
   61DIO     C445365   5.481   1.971   5.036
   61DIO     C545366   5.337   1.961   5.025
   61DIO     F245367   5.281   1.932   4.906
   61DIO     C645368   5.253   1.975   5.142
   61DIO     F345369   5.119   1.966   5.130
   61DIO     C745370   5.693   2.009   5.177
   61DIO     C845371   5.770   2.098   5.088
   61DIO     C945372   5.915   2.109   5.098
   61DIO    C1045373   5.987   2.024   5.191
   61DIO    C1145374   5.915   1.941   5.285
   61DIO    C1245375   5.771   1.932   5.276
   61DIO     F445376   5.706   1.850   5.362
   61DIO     O145377   6.120   2.057   5.213
   61DIO    C1345378   6.214   1.958   5.238
   61DIO     O245379   6.215   1.833   5.218
   61DIO    C1445380   6.343   2.013   5.281
   61DIO    C1545381   6.409   2.123   5.208
   61DIO     F545382   6.347   2.182   5.104
   61DIO    C1645383   6.540   2.174   5.244
   61DIO    C1745384   6.616   2.112   5.353
   61DIO    C1845385   6.547   2.015   5.437
   61DIO    C1945386   6.416   1.965   5.401
   61DIO     F645387   6.353   1.887   5.491
   61DIO    C2045388   6.757   2.156   5.385
   61DIO     O345389   6.826   2.213   5.273
   61DIO    C2145390   6.870   2.115   5.180
   61DIO    C2245391   6.959   2.011   5.248
   61DIO    C2345392   6.878   1.953   5.364
   61DIO     O445393   6.834   2.056   5.452
   61DIO    C2445394   7.092   2.070   5.301
   61DIO    C2545395   7.182   2.134   5.195
   61DIO    C2645396   7.221   2.041   5.082
   61DIO     H145397   5.500   2.029   5.381
   61DIO     H245398   5.542   1.950   4.948
   61DIO     H345399   5.719   2.161   5.016
   61DIO     H445400   5.970   2.181   5.039
   61DIO     H545401   5.969   1.882   5.358
   61DIO     H645402   6.578   2.261   5.192
   61DIO     H745403   6.590   1.983   5.531
   61DIO     H845404   6.747   2.238   5.457
   61DIO     H945405   6.783   2.066   5.134
   61DIO    H1045406   6.923   2.166   5.100
   61DIO    H1145407   6.982   1.930   5.177
   61DIO    H1245408   6.939   1.883   5.423
   61DIO    H1345409   6.792   1.896   5.327
   61DIO    H1445410   7.072   2.145   5.379
   61DIO    H1545411   7.148   1.989   5.350
   61DIO    H1645412   7.135   2.224   5.155
   61DIO    H1745413   7.274   2.168   5.245
   61DIO    H1845414   7.265   1.948   5.120
   61DIO    H1945415   7.134   2.016   5.020
   61DIO    H2045416   7.295   2.090   5.017
   62DIO     F145417   0.484   5.167   8.713
   62DIO     C145418   0.561   5.264   8.765
   62DIO     C245419   0.705   5.247   8.766
   62DIO     C345420   0.794   5.350   8.825
   62DIO     C445421   0.729   5.471   8.880
   62DIO     C545422   0.584   5.485   8.878
   62DIO     F245423   0.529   5.599   8.926
   62DIO     C645424   0.501   5.383   8.821
   62DIO     F345425   0.367   5.397   8.821
   62DIO     C745426   0.941   5.334   8.827
   62DIO     C845427   1.018   5.354   8.952
   62DIO     C945428   1.162   5.339   8.955
   62DIO    C1045429   1.235   5.314   8.832
   62DIO    C1145430   1.162   5.287   8.709
   62DIO    C1245431   1.018   5.299   8.707
   62DIO     F445432   0.953   5.279   8.590
   62DIO     O145433   1.367   5.277   8.845
   62DIO    C1345434   1.462   5.315   8.750
   62DIO     O245435   1.463   5.405   8.661
   62DIO    C1445436   1.591   5.248   8.769
   62DIO    C1545437   1.657   5.242   8.901
   62DIO     F545438   1.594   5.291   9.010
   62DIO    C1645439   1.788   5.182   8.920
   62DIO    C1745440   1.864   5.132   8.807
   62DIO    C1845441   1.795   5.121   8.679
   62DIO    C1945442   1.663   5.179   8.660
   62DIO     F645443   1.601   5.153   8.543
   62DIO    C2045444   2.004   5.079   8.823
   62DIO     O345445   2.074   5.136   8.935
   62DIO    C2145446   2.118   5.269   8.911
   62DIO    C2245447   2.207   5.276   8.787
   62DIO    C2345448   2.126   5.216   8.671
   62DIO     O445449   2.082   5.085   8.703
   62DIO    C2445450   2.339   5.198   8.803
   62DIO    C2545451   2.430   5.245   8.918
   62DIO    C2645452   2.469   5.392   8.910
   62DIO     H145453   0.748   5.157   8.723
   62DIO     H245454   0.789   5.554   8.915
   62DIO     H345455   0.966   5.374   9.045
   62DIO     H445456   1.217   5.344   9.048
   62DIO     H545457   1.217   5.263   8.618
   62DIO     H645458   1.826   5.174   9.021
   62DIO     H745459   1.838   5.064   8.597
   62DIO     H845460   1.995   4.973   8.847
   62DIO     H945461   2.031   5.335   8.899
   62DIO    H1045462   2.171   5.304   9.000
   62DIO    H1145463   2.229   5.380   8.764
   62DIO    H1245464   2.187   5.210   8.581
   62DIO    H1345465   2.040   5.280   8.647
   62DIO    H1445466   2.320   5.092   8.818
   62DIO    H1545467   2.396   5.207   8.710
   62DIO    H1645468   2.383   5.225   9.014
   62DIO    H1745469   2.522   5.185   8.916
   62DIO    H1845470   2.512   5.416   8.812
   62DIO    H1945471   2.382   5.457   8.926
   62DIO    H2045472   2.542   5.416   8.987
   63DIO     F145473   4.527   1.998   9.151
   63DIO     C145474   4.604   2.099   9.194
   63DIO     C245475   4.748   2.082   9.196
   63DIO     C345476   4.837   2.190   9.245
   63DIO     C445477   4.772   2.316   9.288
   63DIO     C545478   4.627   2.330   9.285
   63DIO     F245479   4.572   2.447   9.322
   63DIO     C645480   4.544   2.223   9.238
   63DIO     F345481   4.410   2.237   9.236
   63DIO     C745482   4.983   2.175   9.249
   63DIO     C845483   5.061   2.206   9.371
   63DIO     C945484   5.205   2.191   9.375
   63DIO    C1045485   5.278   2.155   9.255
   63DIO    C1145486   5.205   2.116   9.135
   63DIO    C1245487   5.061   2.129   9.132
   63DIO     F445488   4.996   2.098   9.018
   63DIO     O145489   5.410   2.120   9.272
   63DIO    C1345490   5.505   2.149   9.174
   63DIO     O245491   5.505   2.229   9.077
   63DIO    C1445492   5.634   2.084   9.199
   63DIO    C1545493   5.700   2.090   9.331
   63DIO     F545494   5.637   2.149   9.435
   63DIO    C1645495   5.831   2.032   9.356
   63DIO    C1745496   5.907   1.971   9.247
   63DIO    C1845497   5.838   1.948   9.121
   63DIO    C1945498   5.706   2.005   9.096
   63DIO     F645499   5.644   1.967   8.983
   63DIO    C2045500   6.047   1.921   9.269
   63DIO     O345501   6.117   1.987   9.374
   63DIO    C2145502   6.161   2.118   9.338
   63DIO    C2245503   6.250   2.113   9.214
   63DIO    C2345504   6.169   2.043   9.105
   63DIO     O445505   6.125   1.915   9.148
   63DIO    C2445506   6.382   2.037   9.238
   63DIO    C2545507   6.473   2.095   9.347
   63DIO    C2645508   6.511   2.240   9.325
   63DIO     H145509   4.791   1.989   9.161
   63DIO     H245510   4.832   2.402   9.316
   63DIO     H345511   5.009   2.235   9.462
   63DIO     H445512   5.260   2.206   9.467
   63DIO     H545513   5.260   2.084   9.047
   63DIO     H645514   5.869   2.033   9.457
   63DIO     H745515   5.881   1.884   9.045
   63DIO     H845516   6.038   1.816   9.302
   63DIO     H945517   6.074   2.182   9.320
   63DIO    H1045518   6.213   2.161   9.423
   63DIO    H1145519   6.272   2.215   9.181
   63DIO    H1245520   6.230   2.028   9.015
   63DIO    H1345521   6.083   2.104   9.075
   63DIO    H1445522   6.362   1.932   9.262
   63DIO    H1545523   6.439   2.037   9.143
   63DIO    H1645524   6.426   2.084   9.445
   63DIO    H1745525   6.565   2.034   9.351
   63DIO    H1845526   6.555   2.255   9.226
   63DIO    H1945527   6.425   2.306   9.335
   63DIO    H2045528   6.585   2.271   9.400
   64DIO     F145529   7.530   0.782   7.959
   64DIO     C145530   7.608   0.890   7.977
   64DIO     C245531   7.752   0.875   7.983
   64DIO     C345532   7.841   0.991   8.004
   64DIO     C445533   7.775   1.124   8.016
   64DIO     C545534   7.631   1.137   8.009
   64DIO     F245535   7.576   1.259   8.016
   64DIO     C645536   7.547   1.021   7.989
   64DIO     F345537   7.414   1.034   7.984
   64DIO     C745538   7.987   0.977   8.012
   64DIO     C845539   8.064   1.037   8.123
   64DIO     C945540   8.209   1.024   8.130
   64DIO    C1045541   8.282   0.959   8.022
   64DIO    C1145542   8.209   0.893   7.915
   64DIO    C1245543   8.065   0.904   7.910
   64DIO     F445544   8.000   0.846   7.807
   64DIO     O145545   8.414   0.929   8.047
   64DIO    C1345546   8.508   0.934   7.945
   64DIO     O245547   8.509   0.988   7.832
   64DIO    C1445548   8.637   0.877   7.985
   64DIO    C1545549   8.704   0.915   8.112
   64DIO     F545550   8.641   0.997   8.199
   64DIO    C1645551   8.835   0.865   8.150
   64DIO    C1745552   8.910   0.779   8.060
   64DIO    C1845553   8.842   0.726   7.943
   64DIO    C1945554   8.710   0.775   7.905
   64DIO     F645555   8.647   0.711   7.804
   64DIO    C2045556   9.051   0.736   8.093
   64DIO     O345557   9.121   0.826   8.179
   64DIO    C2145558   9.164   0.944   8.112
   64DIO    C2245559   9.253   0.908   7.993
   64DIO    C2345560   9.173   0.814   7.904
   64DIO     O445561   9.128   0.701   7.978
   64DIO    C2445562   9.386   0.841   8.034
   64DIO    C2545563   9.477   0.923   8.126
   64DIO    C2645564   9.515   1.059   8.070
   64DIO     H145565   7.795   0.776   7.972
   64DIO     H245566   7.836   1.213   8.021
   64DIO     H345567   8.013   1.088   8.203
   64DIO     H445568   8.264   1.060   8.216
   64DIO     H545569   8.264   0.840   7.838
   64DIO     H645570   8.873   0.890   8.248
   64DIO     H745571   8.884   0.646   7.884
   64DIO     H845572   9.041   0.643   8.151
   64DIO     H945573   9.078   1.002   8.079
   64DIO    H1045574   9.217   1.006   8.184
   64DIO    H1145575   9.276   0.999   7.936
   64DIO    H1245576   9.234   0.778   7.821
   64DIO    H1345577   9.086   0.866   7.860
   64DIO    H1445578   9.366   0.745   8.083
   64DIO    H1545579   9.443   0.818   7.943
   64DIO    H1645580   9.429   0.937   8.224
   64DIO    H1745581   9.569   0.866   8.144
   64DIO    H1845582   9.559   1.050   7.970
   64DIO    H1945583   9.429   1.126   8.063
   64DIO    H2045584   9.589   1.107   8.135
   65DIO     F145585   5.590   8.296   1.407
   65DIO     C145586   5.667   8.392   1.352
   65DIO     C245587   5.811   8.383   1.367
   65DIO     C345588   5.900   8.488   1.311
   65DIO     C445589   5.835   8.598   1.238
   65DIO     C545590   5.690   8.605   1.224
   65DIO     F245591   5.635   8.705   1.153
   65DIO     C645592   5.607   8.502   1.281
   65DIO     F345593   5.473   8.509   1.269
   65DIO     C745594   6.046   8.481   1.326
   65DIO     C845595   6.124   8.597   1.375
   65DIO     C945596   6.268   8.592   1.389
   65DIO    C1045597   6.341   8.474   1.345
   65DIO    C1145598   6.268   8.356   1.303
   65DIO    C1245599   6.124   8.361   1.291
   65DIO     F445600   6.059   8.251   1.247
   65DIO     O145601   6.473   8.466   1.383
   65DIO    C1345602   6.568   8.406   1.301
   65DIO     O245603   6.568   8.378   1.178
   65DIO    C1445604   6.697   8.386   1.368
   65DIO    C1545605   6.763   8.495   1.443
   65DIO     F545606   6.700   8.614   1.459
   65DIO    C1645607   6.894   8.480   1.504
   65DIO    C1745608   6.970   8.356   1.487
   65DIO    C1845609   6.901   8.242   1.428
   65DIO    C1945610   6.769   8.257   1.368
   65DIO     F645611   6.707   8.144   1.329
   65DIO    C2045612   7.110   8.343   1.540
   65DIO     O345613   7.180   8.468   1.551
   65DIO    C2145614   7.224   8.517   1.425
   65DIO    C2245615   7.313   8.416   1.354
   65DIO    C2345616   7.232   8.287   1.343
   65DIO     O445617   7.188   8.244   1.471
   65DIO    C2445618   7.445   8.389   1.428
   65DIO    C2545619   7.536   8.511   1.449
   65DIO    C2645620   7.574   8.582   1.320
   65DIO     H145621   5.854   8.299   1.420
   65DIO     H245622   5.895   8.672   1.186
   65DIO     H345623   6.072   8.687   1.407
   65DIO     H445624   6.323   8.674   1.434
   65DIO     H545625   6.323   8.266   1.275
   65DIO     H645626   6.932   8.561   1.565
   65DIO     H745627   6.944   8.143   1.433
   65DIO     H845628   7.101   8.306   1.643
   65DIO     H945629   7.137   8.543   1.363
   65DIO    H1045630   7.276   8.612   1.443
   65DIO    H1145631   7.335   8.452   1.253
   65DIO    H1245632   7.293   8.206   1.300
   65DIO    H1345633   7.146   8.300   1.276
   65DIO    H1445634   7.425   8.345   1.526
   65DIO    H1545635   7.502   8.314   1.372
   65DIO    H1645636   7.489   8.582   1.517
   65DIO    H1745637   7.628   8.477   1.499
   65DIO    H1845638   7.618   8.512   1.248
   65DIO    H1945639   7.488   8.630   1.273
   65DIO    H2045640   7.648   8.660   1.341
   66DIO     F145641   6.226   9.456   6.225
   66DIO     C145642   6.304   9.349   6.251
   66DIO     C245643   6.448   9.361   6.239
   66DIO     C345644   6.537   9.245   6.264
   66DIO     C445645   6.471   9.118   6.303
   66DIO     C545646   6.327   9.109   6.314
   66DIO     F245647   6.271   8.992   6.354
   66DIO     C645648   6.243   9.223   6.288
   66DIO     F345649   6.109   9.213   6.298
   66DIO     C745650   6.683   9.255   6.251
   66DIO     C845651   6.760   9.158   6.171
   66DIO     C945652   6.905   9.167   6.159
   66DIO    C1045653   6.977   9.268   6.234
   66DIO    C1145654   6.905   9.370   6.308
   66DIO    C1245655   6.761   9.362   6.318
   66DIO     F445656   6.696   9.454   6.391
   66DIO     O145657   7.110   9.286   6.200
   66DIO    C1345658   7.204   9.321   6.296
   66DIO     O245659   7.205   9.313   6.422
   66DIO    C1445660   7.333   9.358   6.237
   66DIO    C1545661   7.399   9.275   6.135
   66DIO     F545662   7.337   9.166   6.086
   66DIO    C1645663   7.530   9.306   6.081
   66DIO    C1745664   7.606   9.420   6.131
   66DIO    C1845665   7.537   9.514   6.220
   66DIO    C1945666   7.406   9.482   6.273
   66DIO     F645667   7.343   9.580   6.342
   66DIO    C2045668   7.747   9.448   6.084
   66DIO     O345669   7.816   9.331   6.039
   66DIO    C2145670   7.860   9.248   6.146
   66DIO    C2245671   7.949   9.326   6.242
   66DIO    C2345672   7.868   9.447   6.289
   66DIO     O445673   7.824   9.524   6.178
   66DIO    C2445674   8.082   9.372   6.179
   66DIO    C2545675   8.172   9.261   6.124
   66DIO    C2645676   8.211   9.157   6.228
   66DIO     H145677   6.490   9.457   6.211
   66DIO     H245678   6.532   9.033   6.332
   66DIO     H345679   6.709   9.080   6.115
   66DIO     H445680   6.960   9.101   6.094
   66DIO     H545681   6.959   9.448   6.360
   66DIO     H645682   7.568   9.246   5.999
   66DIO     H745683   7.580   9.610   6.243
   66DIO     H845684   7.737   9.512   5.996
   66DIO     H945685   7.773   9.207   6.198
   66DIO    H1045686   7.913   9.163   6.102
   66DIO    H1145687   7.972   9.263   6.329
   66DIO    H1245688   7.929   9.512   6.352
   66DIO    H1345689   7.782   9.416   6.349
   66DIO    H1445690   8.062   9.443   6.097
   66DIO    H1545691   8.138   9.429   6.254
   66DIO    H1645692   8.125   9.212   6.039
   66DIO    H1745693   8.264   9.308   6.086
   66DIO    H1845694   8.255   9.204   6.317
   66DIO    H1945695   8.124   9.098   6.260
   66DIO    H2045696   8.285   9.088   6.186
   67DIO     F145697   7.070   8.912   1.910
   67DIO     C145698   7.148   9.000   1.843
   67DIO     C245699   7.292   8.993   1.859
   67DIO     C345700   7.381   9.089   1.790
   67DIO     C445701   7.315   9.190   1.702
   67DIO     C545702   7.171   9.194   1.688
   67DIO     F245703   7.116   9.284   1.605
   67DIO     C645704   7.087   9.099   1.758
   67DIO     F345705   6.953   9.105   1.745
   67DIO     C745706   7.527   9.085   1.805
   67DIO     C845707   7.604   9.207   1.839
   67DIO     C945708   7.749   9.203   1.854
   67DIO    C1045709   7.822   9.081   1.825
   67DIO    C1145710   7.749   8.957   1.799
   67DIO    C1245711   7.605   8.961   1.787
   67DIO     F445712   7.540   8.847   1.757
   67DIO     O145713   7.954   9.078   1.864
   67DIO    C1345714   8.048   9.007   1.790
   67DIO     O245715   8.049   8.963   1.672
   67DIO    C1445716   8.177   8.996   1.859
   67DIO    C1545717   8.244   9.114   1.919
   67DIO     F545718   8.181   9.234   1.920
   67DIO    C1645719   8.374   9.107   1.982
   67DIO    C1745720   8.450   8.982   1.981
   67DIO    C1845721   8.381   8.861   1.938
   67DIO    C1945722   8.250   8.869   1.877
   67DIO     F645723   8.187   8.751   1.852
   67DIO    C2045724   8.591   8.976   2.035
   67DIO     O345725   8.661   9.101   2.030
   67DIO    C2145726   8.704   9.134   1.899
   67DIO    C2245727   8.793   9.024   1.841
   67DIO    C2345728   8.712   8.894   1.848
   67DIO     O445729   8.668   8.869   1.981
   67DIO    C2445730   8.926   9.007   1.919
   67DIO    C2545731   9.017   9.131   1.923
   67DIO    C2645732   9.055   9.184   1.786
   67DIO     H145733   7.335   8.917   1.923
   67DIO     H245734   7.376   9.256   1.641
   67DIO     H345735   7.553   9.300   1.859
   67DIO     H445736   7.804   9.290   1.887
   67DIO     H545737   7.803   8.865   1.783
   67DIO     H645738   8.413   9.195   2.032
   67DIO     H745739   8.424   8.764   1.956
   67DIO     H845740   8.581   8.953   2.142
   67DIO     H945741   8.618   9.151   1.834
   67DIO    H1045742   8.757   9.230   1.904
   67DIO    H1145743   8.816   9.046   1.737
   67DIO    H1245744   8.774   8.809   1.816
   67DIO    H1345745   8.626   8.899   1.780
   67DIO    H1445746   8.906   8.976   2.022
   67DIO    H1545747   8.982   8.925   1.872
   67DIO    H1645748   8.969   9.210   1.982
   67DIO    H1745749   9.108   9.104   1.977
   67DIO    H1845750   9.099   9.105   1.724
   67DIO    H1945751   8.969   9.226   1.734
   67DIO    H2045752   9.129   9.264   1.797
   68DIO     F145753   2.048   0.592   5.147
   68DIO     C145754   2.125   0.700   5.165
   68DIO     C245755   2.270   0.684   5.171
   68DIO     C345756   2.358   0.801   5.193
   68DIO     C445757   2.293   0.933   5.206
   68DIO     C545758   2.149   0.946   5.199
   68DIO     F245759   2.093   1.069   5.207
   68DIO     C645760   2.065   0.831   5.179
   68DIO     F345761   1.931   0.844   5.174
   68DIO     C745762   2.505   0.787   5.201
   68DIO     C845763   2.582   0.846   5.312
   68DIO     C945764   2.727   0.833   5.320
   68DIO    C1045765   2.799   0.769   5.211
   68DIO    C1145766   2.727   0.703   5.104
   68DIO    C1245767   2.583   0.714   5.098
   68DIO     F445768   2.518   0.657   4.995
   68DIO     O145769   2.931   0.738   5.236
   68DIO    C1345770   3.026   0.743   5.134
   68DIO     O245771   3.027   0.799   5.021
   68DIO    C1445772   3.155   0.686   5.174
   68DIO    C1545773   3.221   0.724   5.300
   68DIO     F545774   3.159   0.806   5.388
   68DIO    C1645775   3.352   0.674   5.338
   68DIO    C1745776   3.428   0.588   5.248
   68DIO    C1845777   3.359   0.536   5.130
   68DIO    C1945778   3.227   0.585   5.093
   68DIO     F645779   3.165   0.522   4.992
   68DIO    C2045780   3.569   0.545   5.281
   68DIO     O345781   3.638   0.635   5.367
   68DIO    C2145782   3.682   0.753   5.301
   68DIO    C2245783   3.771   0.718   5.182
   68DIO    C2345784   3.690   0.624   5.092
   68DIO     O445785   3.646   0.510   5.165
   68DIO    C2445786   3.904   0.651   5.223
   68DIO    C2545787   3.994   0.732   5.315
   68DIO    C2645788   4.033   0.868   5.259
   68DIO     H145789   2.312   0.585   5.160
   68DIO     H245790   2.353   1.023   5.212
   68DIO     H345791   2.530   0.896   5.393
   68DIO     H445792   2.782   0.869   5.405
   68DIO     H545793   2.781   0.651   5.026
   68DIO     H645794   3.390   0.699   5.437
   68DIO     H745795   3.402   0.456   5.072
   68DIO     H845796   3.559   0.451   5.338
   68DIO     H945797   3.595   0.811   5.268
   68DIO    H1045798   3.735   0.815   5.373
   68DIO    H1145799   3.793   0.809   5.125
   68DIO    H1245800   3.751   0.589   5.009
   68DIO    H1345801   3.604   0.676   5.048
   68DIO    H1445802   3.884   0.554   5.271
   68DIO    H1545803   3.960   0.627   5.131
   68DIO    H1645804   3.947   0.745   5.413
   68DIO    H1745805   4.086   0.675   5.333
   68DIO    H1845806   4.077   0.859   5.160
   68DIO    H1945807   3.946   0.935   5.253
   68DIO    H2045808   4.106   0.916   5.325
   69DIO     F145809   7.996   7.696   1.987
   69DIO     C145810   8.074   7.740   1.887
   69DIO     C245811   8.218   7.742   1.903
   69DIO     C345812   8.307   7.792   1.796
   69DIO     C445813   8.241   7.837   1.671
   69DIO     C545814   8.097   7.834   1.657
   69DIO     F245815   8.042   7.872   1.540
   69DIO     C645816   8.013   7.786   1.764
   69DIO     F345817   7.880   7.784   1.750
   69DIO     C745818   8.453   7.796   1.812
   69DIO     C845819   8.530   7.919   1.782
   69DIO     C945820   8.675   7.923   1.797
   69DIO    C1045821   8.748   7.802   1.832
   69DIO    C1145822   8.675   7.682   1.869
   69DIO    C1245823   8.531   7.679   1.856
   69DIO     F445824   8.466   7.564   1.886
   69DIO     O145825   8.880   7.818   1.867
   69DIO    C1345826   8.974   7.721   1.837
   69DIO     O245827   8.975   7.625   1.755
   69DIO    C1445828   9.103   7.745   1.902
   69DIO    C1545829   9.170   7.877   1.897
   69DIO     F545830   9.107   7.982   1.840
   69DIO    C1645831   9.301   7.901   1.955
   69DIO    C1745832   9.376   7.792   2.015
   69DIO    C1845833   9.308   7.665   2.037
   69DIO    C1945834   9.176   7.642   1.980
   69DIO     F645835   9.113   7.528   2.016
   69DIO    C2045836   9.517   7.813   2.066
   69DIO     O345837   9.587   7.920   2.000
   69DIO    C2145838   9.630   7.884   1.870
   69DIO    C2245839   9.719   7.761   1.873
   69DIO    C2345840   9.639   7.650   1.942
   69DIO     O445841   9.594   7.693   2.071
   69DIO    C2445842   9.852   7.783   1.949
   69DIO    C2545843   9.943   7.894   1.893
   69DIO    C2645844   9.981   7.873   1.747
   69DIO     H145845   8.261   7.706   1.996
   69DIO     H245846   8.302   7.866   1.586
   69DIO     H345847   8.479   8.010   1.754
   69DIO     H445848   8.730   8.015   1.783
   69DIO     H545849   8.730   7.594   1.900
   69DIO     H645850   9.339   8.003   1.956
   69DIO     H745851   9.350   7.589   2.100
   69DIO     H845852   9.507   7.845   2.170
   69DIO     H945853   9.544   7.868   1.805
   69DIO    H1045854   9.683   7.970   1.828
   69DIO    H1145855   9.742   7.729   1.771
   69DIO    H1245856   9.700   7.561   1.956
   69DIO    H1345857   9.552   7.621   1.881
   69DIO    H1445858   9.832   7.807   2.054
   69DIO    H1545859   9.909   7.689   1.949
   69DIO    H1645860   9.895   7.992   1.905
   69DIO    H1745861  10.035   7.896   1.953
   69DIO    H1845862  10.025   7.774   1.731
   69DIO    H1945863   9.895   7.884   1.681
   69DIO    H2045864  10.055   7.949   1.717
   70DIO     F145865   2.395   1.125   4.896
   70DIO     C145866   2.473   1.020   4.861
   70DIO     C245867   2.617   1.037   4.857
   70DIO     C345868   2.706   0.926   4.817
   70DIO     C445869   2.640   0.797   4.784
   70DIO     C545870   2.496   0.783   4.788
   70DIO     F245871   2.441   0.663   4.761
   70DIO     C645872   2.412   0.894   4.827
   70DIO     F345873   2.278   0.880   4.829
   70DIO     C745874   2.852   0.941   4.812
   70DIO     C845875   2.929   0.900   4.692
   70DIO     C945876   3.074   0.915   4.687
   70DIO    C1045877   3.147   0.960   4.804
   70DIO    C1145878   3.074   1.008   4.921
   70DIO    C1245879   2.930   0.996   4.925
   70DIO     F445880   2.865   1.036   5.036
   70DIO     O145881   3.279   0.994   4.785
   70DIO    C1345882   3.373   0.973   4.885
   70DIO     O245883   3.374   0.900   4.988
   70DIO    C1445884   3.502   1.036   4.855
   70DIO    C1545885   3.569   1.019   4.723
   70DIO     F545886   3.506   0.952   4.624
   70DIO    C1645887   3.699   1.074   4.694
   70DIO    C1745888   3.775   1.144   4.797
   70DIO    C1845889   3.706   1.177   4.922
   70DIO    C1945890   3.575   1.122   4.950
   70DIO     F645891   3.512   1.169   5.061
   70DIO    C2045892   3.916   1.193   4.772
   70DIO     O345893   3.986   1.118   4.672
   70DIO    C2145894   4.029   0.991   4.719
   70DIO    C2245895   4.118   1.005   4.842
   70DIO    C2345896   4.037   1.084   4.945
   70DIO     O445897   3.993   1.208   4.891
   70DIO    C2445898   4.251   1.079   4.812
   70DIO    C2545899   4.342   1.013   4.708
   70DIO    C2645900   4.380   0.870   4.741
   70DIO     H145901   2.660   1.133   4.884
   70DIO     H245902   2.701   0.709   4.763
   70DIO     H345903   2.878   0.864   4.604
   70DIO     H445904   3.129   0.893   4.597
   70DIO     H545905   3.128   1.047   5.006
   70DIO     H645906   3.738   1.066   4.593
   70DIO     H745907   3.749   1.247   4.992
   70DIO     H845908   3.906   1.294   4.730
   70DIO     H945909   3.943   0.928   4.741
   70DIO    H1045910   4.082   0.941   4.637
   70DIO    H1145911   4.141   0.906   4.883
   70DIO    H1245912   4.099   1.106   5.033
   70DIO    H1345913   3.951   1.025   4.980
   70DIO    H1445914   4.231   1.181   4.780
   70DIO    H1545915   4.307   1.087   4.906
   70DIO    H1645916   4.294   1.016   4.609
   70DIO    H1745917   4.433   1.073   4.699
   70DIO    H1845918   4.424   0.863   4.841
   70DIO    H1945919   4.294   0.803   4.736
   70DIO    H2045920   4.454   0.833   4.669
   71DIO     F145921   0.779   4.481   9.176
   71DIO     C145922   0.857   4.522   9.074
   71DIO     C245923   1.001   4.525   9.091
   71DIO     C345924   1.089   4.571   8.982
   71DIO     C445925   1.024   4.613   8.856
   71DIO     C545926   0.880   4.609   8.841
   71DIO     F245927   0.824   4.644   8.723
   71DIO     C645928   0.796   4.564   8.950
   71DIO     F345929   0.662   4.562   8.936
   71DIO     C745930   1.236   4.576   8.997
   71DIO     C845931   1.313   4.698   8.964
   71DIO     C945932   1.458   4.702   8.979
   71DIO    C1045933   1.530   4.582   9.017
   71DIO    C1145934   1.458   4.463   9.058
   71DIO    C1245935   1.314   4.460   9.046
   71DIO     F445936   1.249   4.346   9.079
   71DIO     O145937   1.662   4.600   9.052
   71DIO    C1345938   1.757   4.501   9.025
   71DIO     O245939   1.758   4.403   8.946
   71DIO    C1445940   1.886   4.527   9.089
   71DIO    C1545941   1.952   4.659   9.080
   71DIO     F545942   1.890   4.762   9.020
   71DIO    C1645943   2.083   4.685   9.138
   71DIO    C1745944   2.159   4.578   9.201
   71DIO    C1845945   2.090   4.452   9.226
   71DIO    C1945946   1.959   4.427   9.170
   71DIO     F645947   1.896   4.314   9.210
   71DIO    C2045948   2.300   4.601   9.251
   71DIO     O345949   2.369   4.705   9.182
   71DIO    C2145950   2.413   4.666   9.053
   71DIO    C2245951   2.502   4.542   9.060
   71DIO    C2345952   2.421   4.434   9.132
   71DIO     O445953   2.377   4.480   9.259
   71DIO    C2445954   2.635   4.567   9.135
   71DIO    C2545955   2.725   4.675   9.076
   71DIO    C2645956   2.764   4.651   8.930
   71DIO     H145957   1.043   4.492   9.185
   71DIO     H245958   1.085   4.638   8.769
   71DIO     H345959   1.261   4.787   8.933
   71DIO     H445960   1.513   4.793   8.962
   71DIO     H545961   1.512   4.376   9.092
   71DIO     H645962   2.121   4.787   9.135
   71DIO     H745963   2.133   4.377   9.292
   71DIO     H845964   2.290   4.636   9.354
   71DIO     H945965   2.326   4.647   8.988
   71DIO    H1045966   2.466   4.750   9.008
   71DIO    H1145967   2.524   4.507   8.959
   71DIO    H1245968   2.482   4.345   9.149
   71DIO    H1345969   2.335   4.403   9.072
   71DIO    H1445970   2.615   4.593   9.240
   71DIO    H1545971   2.691   4.473   9.137
   71DIO    H1645972   2.678   4.774   9.085
   71DIO    H1745973   2.817   4.680   9.136
   71DIO    H1845974   2.808   4.552   8.917
   71DIO    H1945975   2.677   4.660   8.864
   71DIO    H2045976   2.837   4.725   8.898
   72DIO     F145977   4.709   5.959   0.935
   72DIO     C145978   4.786   6.069   0.926
   72DIO     C245979   4.930   6.055   0.936
   72DIO     C345980   5.019   6.173   0.928
   72DIO     C445981   4.954   6.305   0.908
   72DIO     C545982   4.809   6.316   0.898
   72DIO     F245983   4.754   6.436   0.876
   72DIO     C645984   4.726   6.199   0.907
   72DIO     F345985   4.592   6.210   0.899
   72DIO     C745986   5.166   6.161   0.939
   72DIO     C845987   5.243   6.246   1.033
   72DIO     C945988   5.387   6.235   1.043
   72DIO    C1045989   5.460   6.147   0.954
   72DIO    C1145990   5.388   6.057   0.866
   72DIO    C1245991   5.243   6.066   0.857
   72DIO     F445992   5.179   5.985   0.771
   72DIO     O145993   5.592   6.123   0.985
   72DIO    C1345994   5.687   6.103   0.885
   72DIO     O245995   5.688   6.129   0.762
   72DIO    C1445996   5.816   6.058   0.937
   72DIO    C1545997   5.882   6.125   1.051
   72DIO     F545998   5.820   6.226   1.116
   72DIO    C1645999   6.013   6.086   1.100
   72DIO    C1746000   6.089   5.981   1.033
   72DIO    C1846001   6.020   5.901   0.932
   72DIO    C1946002   5.888   5.940   0.884
   72DIO     F646003   5.826   5.854   0.801
   72DIO    C2046004   6.229   5.946   1.076
   72DIO     O346005   6.299   6.055   1.138
   72DIO    C2146006   6.343   6.153   1.044
   72DIO    C2246007   6.432   6.090   0.937
   72DIO    C2346008   6.351   5.977   0.873
   72DIO     O446009   6.307   5.885   0.972
   72DIO    C2446010   6.565   6.035   0.994
   72DIO    C2546011   6.655   6.137   1.063
   72DIO    C2646012   6.694   6.255   0.976
   72DIO     H146013   4.973   5.956   0.949
   72DIO     H246014   5.014   6.393   0.892
   72DIO     H346015   5.191   6.315   1.099
   72DIO     H446016   5.443   6.291   1.117
   72DIO     H546017   5.442   5.987   0.803
   72DIO     H646018   6.051   6.134   1.189
   72DIO     H746019   6.063   5.809   0.895
   72DIO     H846020   6.220   5.870   1.154
   72DIO     H946021   6.256   6.202   0.998
   72DIO    H1046022   6.396   6.231   1.100
   72DIO    H1146023   6.454   6.165   0.860
   72DIO    H1246024   6.412   5.922   0.801
   72DIO    H1346025   6.265   6.017   0.818
   72DIO    H1446026   6.545   5.953   1.064
   72DIO    H1546027   6.621   5.990   0.911
   72DIO    H1646028   6.608   6.173   1.155
   72DIO    H1746029   6.747   6.085   1.095
   72DIO    H1846030   6.738   6.222   0.881
   72DIO    H1946031   6.607   6.318   0.954
   72DIO    H2046032   6.767   6.317   1.027
   73DIO     F146033   4.655   8.076   9.687
   73DIO     C146034   4.732   7.966   9.676
   73DIO     C246035   4.876   7.982   9.669
   73DIO     C346036   4.965   7.864   9.654
   73DIO     C446037   4.900   7.731   9.649
   73DIO     C546038   4.755   7.719   9.656
   73DIO     F246039   4.700   7.596   9.656
   73DIO     C646040   4.672   7.835   9.670
   73DIO     F346041   4.538   7.822   9.676
   73DIO     C746042   5.111   7.878   9.645
   73DIO     C846043   5.189   7.812   9.537
   73DIO     C946044   5.333   7.825   9.529
   73DIO    C1046045   5.406   7.895   9.634
   73DIO    C1146046   5.333   7.967   9.737
   73DIO    C1246047   5.189   7.956   9.744
   73DIO     F446048   5.124   8.019   9.844
   73DIO     O146049   5.538   7.924   9.607
   73DIO    C1346050   5.633   7.925   9.710
   73DIO     O246051   5.633   7.876   9.826
   73DIO    C1446052   5.762   7.980   9.667
   73DIO    C1546053   5.828   7.935   9.542
   73DIO     F546054   5.765   7.848   9.460
   73DIO    C1646055   5.959   7.983   9.502
   73DIO    C1746056   6.035   8.073   9.587
   73DIO    C1846057   5.966   8.132   9.701
   73DIO    C1946058   5.834   8.085   9.741
   73DIO     F646059   5.772   8.154   9.839
   73DIO    C2046060   6.175   8.115   9.552
   73DIO     O346061   6.245   8.020   9.470
   73DIO    C2146062   6.289   7.906   9.544
   73DIO    C2246063   6.378   7.948   9.661
   73DIO    C2346064   6.297   8.046   9.745
   73DIO     O446065   6.253   8.156   9.665
   73DIO    C2446066   6.510   8.013   9.616
   73DIO    C2546067   6.601   7.926   9.528
   73DIO    C2646068   6.639   7.793   9.592
   73DIO     H146069   4.919   8.081   9.675
   73DIO     H246070   4.960   7.641   9.648
   73DIO     H346071   5.137   7.758   9.460
   73DIO     H446072   5.388   7.784   9.446
   73DIO     H546073   5.388   8.023   9.812
   73DIO     H646074   5.997   7.952   9.405
   73DIO     H746075   6.009   8.216   9.755
   73DIO     H846076   6.166   8.205   9.489
   73DIO     H946077   6.202   7.850   9.579
   73DIO    H1046078   6.341   7.840   9.475
   73DIO    H1146079   6.400   7.860   9.722
   73DIO    H1246080   6.358   8.087   9.826
   73DIO    H1346081   6.211   7.997   9.791
   73DIO    H1446082   6.490   8.106   9.562
   73DIO    H1546083   6.567   8.041   9.706
   73DIO    H1646084   6.554   7.907   9.431
   73DIO    H1746085   6.693   7.982   9.507
   73DIO    H1846086   6.683   7.808   9.691
   73DIO    H1946087   6.553   7.727   9.601
   73DIO    H2046088   6.713   7.741   9.529
   74DIO     F146089   4.491   6.877   0.943
   74DIO     C146090   4.569   6.947   0.858
   74DIO     C246091   4.713   6.944   0.875
   74DIO     C346092   4.802   7.022   0.786
   74DIO     C446093   4.736   7.099   0.678
   74DIO     C546094   4.592   7.100   0.663
   74DIO     F246095   4.537   7.169   0.561
   74DIO     C646096   4.508   7.024   0.753
   74DIO     F346097   4.374   7.027   0.739
   74DIO     C746098   4.948   7.021   0.802
   74DIO     C846099   5.025   7.147   0.807
   74DIO     C946100   5.170   7.147   0.822
   74DIO    C1046101   5.243   7.021   0.822
   74DIO    C1146102   5.170   6.895   0.825
   74DIO    C1246103   5.026   6.896   0.812
   74DIO     F446104   4.961   6.778   0.810
   74DIO     O146105   5.375   7.027   0.861
   74DIO    C1346106   5.469   6.942   0.805
   74DIO     O246107   5.470   6.872   0.700
   74DIO    C1446108   5.598   6.947   0.875
   74DIO    C1546109   5.665   7.076   0.906
   74DIO     F546110   5.602   7.192   0.880
   74DIO    C1646111   5.795   7.083   0.968
   74DIO    C1746112   5.871   6.962   0.996
   74DIO    C1846113   5.802   6.834   0.982
   74DIO    C1946114   5.671   6.827   0.921
   74DIO     F646115   5.608   6.707   0.925
   74DIO    C2046116   6.012   6.968   1.051
   74DIO     O346117   6.082   7.088   1.017
   74DIO    C2146118   6.125   7.090   0.882
   74DIO    C2246119   6.214   6.970   0.851
   74DIO    C2346120   6.133   6.845   0.887
   74DIO     O446121   6.089   6.851   1.022
   74DIO    C2446122   6.347   6.971   0.930
   74DIO    C2546123   6.438   7.093   0.906
   74DIO    C2646124   6.476   7.113   0.761
   74DIO     H146125   4.756   6.884   0.955
   74DIO     H246126   4.797   7.150   0.603
   74DIO     H346127   4.974   7.242   0.805
   74DIO     H446128   5.225   7.239   0.834
   74DIO     H546129   5.224   6.802   0.831
   74DIO     H646130   5.834   7.180   0.997
   74DIO     H746131   5.845   6.743   1.022
   74DIO     H846132   6.002   6.970   1.160
   74DIO     H946133   6.039   7.092   0.815
   74DIO    H1046134   6.178   7.184   0.865
   74DIO    H1146135   6.237   6.968   0.744
   74DIO    H1246136   6.195   6.755   0.876
   74DIO    H1346137   6.047   6.834   0.820
   74DIO    H1446138   6.327   6.965   1.038
   74DIO    H1546139   6.403   6.881   0.904
   74DIO    H1646140   6.390   7.184   0.945
   74DIO    H1746141   6.529   7.079   0.965
   74DIO    H1846142   6.520   7.022   0.718
   74DIO    H1946143   6.390   7.142   0.700
   74DIO    H2046144   6.550   7.194   0.752
   75DIO     F146145   3.826   5.223   8.905
   75DIO     C146146   3.903   5.117   8.878
   75DIO     C246147   4.047   5.133   8.873
   75DIO     C346148   4.136   5.019   8.841
   75DIO     C446149   4.071   4.888   8.818
   75DIO     C546150   3.926   4.874   8.823
   75DIO     F246151   3.871   4.753   8.805
   75DIO     C646152   3.843   4.988   8.853
   75DIO     F346153   3.709   4.974   8.857
   75DIO     C746154   4.283   5.033   8.835
   75DIO     C846155   4.360   4.984   8.719
   75DIO     C946156   4.504   4.998   8.713
   75DIO    C1046157   4.577   5.052   8.826
   75DIO    C1146158   4.505   5.109   8.938
   75DIO    C1246159   4.360   5.097   8.943
   75DIO     F446160   4.296   5.145   9.051
   75DIO     O146161   4.709   5.084   8.804
   75DIO    C1346162   4.804   5.071   8.905
   75DIO     O246163   4.805   5.006   9.013
   75DIO    C1446164   4.933   5.131   8.870
   75DIO    C1546165   4.999   5.104   8.741
   75DIO     F546166   4.937   5.030   8.647
   75DIO    C1646167   5.130   5.157   8.707
   75DIO    C1746168   5.206   5.235   8.805
   75DIO    C1846169   5.137   5.277   8.926
   75DIO    C1946170   5.005   5.225   8.959
   75DIO     F646171   4.943   5.279   9.066
   75DIO    C2046172   5.346   5.281   8.776
   75DIO     O346173   5.416   5.199   8.682
   75DIO    C2146174   5.460   5.076   8.738
   75DIO    C2246175   5.549   5.100   8.860
   75DIO    C2346176   5.468   5.186   8.957
   75DIO     O446177   5.424   5.306   8.894
   75DIO    C2446178   5.682   5.171   8.825
   75DIO    C2546179   5.772   5.097   8.725
   75DIO    C2646180   5.811   4.957   8.770
   75DIO     H146181   4.090   5.230   8.893
   75DIO     H246182   4.131   4.799   8.804
   75DIO     H346183   4.308   4.941   8.634
   75DIO     H446184   4.560   4.969   8.624
   75DIO     H546185   4.559   5.154   9.020
   75DIO     H646186   5.168   5.141   8.607
   75DIO     H746187   5.180   5.352   8.992
   75DIO     H846188   5.337   5.379   8.727
   75DIO     H946189   5.373   5.015   8.766
   75DIO    H1046190   5.513   5.020   8.660
   75DIO    H1146191   5.571   5.004   8.908
   75DIO    H1246192   5.529   5.215   9.043
   75DIO    H1346193   5.382   5.131   8.996
   75DIO    H1446194   5.662   5.271   8.784
   75DIO    H1546195   5.738   5.186   8.918
   75DIO    H1646196   5.725   5.093   8.627
   75DIO    H1746197   5.864   5.156   8.713
   75DIO    H1846198   5.855   4.958   8.870
   75DIO    H1946199   5.724   4.890   8.770
   75DIO    H2046200   5.884   4.915   8.700
   76DIO     F146201   0.640   5.416   5.487
   76DIO     C146202   0.718   5.330   5.418
   76DIO     C246203   0.862   5.347   5.420
   76DIO     C346204   0.951   5.257   5.344
   76DIO     C446205   0.885   5.148   5.268
   76DIO     C546206   0.741   5.133   5.267
   76DIO     F246207   0.686   5.030   5.200
   76DIO     C646208   0.657   5.224   5.342
   76DIO     F346209   0.524   5.209   5.339
   76DIO     C746210   1.097   5.273   5.344
   76DIO     C846211   1.174   5.276   5.218
   76DIO     C946212   1.319   5.291   5.218
   76DIO    C1046213   1.392   5.293   5.344
   76DIO    C1146214   1.319   5.298   5.470
   76DIO    C1246215   1.175   5.285   5.469
   76DIO     F446216   1.110   5.284   5.587
   76DIO     O146217   1.524   5.332   5.337
   76DIO    C1346218   1.618   5.277   5.424
   76DIO     O246219   1.619   5.173   5.495
   76DIO    C1446220   1.748   5.347   5.417
   76DIO    C1546221   1.814   5.376   5.288
   76DIO     F546222   1.751   5.348   5.172
   76DIO    C1646223   1.945   5.439   5.280
   76DIO    C1746224   2.020   5.468   5.401
   76DIO    C1846225   1.952   5.456   5.529
   76DIO    C1946226   1.820   5.395   5.537
   76DIO     F646227   1.758   5.400   5.657
   76DIO    C2046228   2.161   5.523   5.394
   76DIO     O346229   2.231   5.487   5.274
   76DIO    C2146230   2.275   5.352   5.274
   76DIO    C2246231   2.363   5.323   5.395
   76DIO    C2346232   2.283   5.360   5.519
   76DIO     O446233   2.238   5.496   5.512
   76DIO    C2446234   2.496   5.402   5.392
   76DIO    C2546235   2.587   5.376   5.271
   76DIO    C2646236   2.625   5.230   5.253
   76DIO     H146237   0.905   5.428   5.479
   76DIO     H246238   0.946   5.073   5.218
   76DIO     H346239   1.123   5.272   5.123
   76DIO     H446240   1.374   5.302   5.126
   76DIO     H546241   1.374   5.305   5.563
   76DIO     H646242   1.983   5.466   5.182
   76DIO     H746243   1.995   5.497   5.620
   76DIO     H846244   2.151   5.632   5.390
   76DIO     H946245   2.188   5.285   5.273
   76DIO    H1046246   2.327   5.333   5.180
   76DIO    H1146247   2.386   5.216   5.399
   76DIO    H1246248   2.344   5.350   5.609
   76DIO    H1346249   2.197   5.294   5.531
   76DIO    H1446250   2.476   5.510   5.397
   76DIO    H1546251   2.553   5.377   5.483
   76DIO    H1646252   2.540   5.414   5.180
   76DIO    H1746253   2.679   5.435   5.284
   76DIO    H1846254   2.669   5.189   5.344
   76DIO    H1946255   2.539   5.169   5.225
   76DIO    H2046256   2.699   5.221   5.172
   77DIO     F146257   5.488   7.917   2.818
   77DIO     C146258   5.566   7.933   2.927
   77DIO     C246259   5.710   7.922   2.914
   77DIO     C346260   5.799   7.937   3.031
   77DIO     C446261   5.733   7.965   3.161
   77DIO     C546262   5.589   7.975   3.171
   77DIO     F246263   5.534   8.005   3.290
   77DIO     C646264   5.505   7.960   3.055
   77DIO     F346265   5.371   7.968   3.066
   77DIO     C746266   5.945   7.925   3.020
   77DIO     C846267   6.022   7.837   3.110
   77DIO     C946268   6.167   7.826   3.100
   77DIO    C1046269   6.240   7.910   3.006
   77DIO    C1146270   6.167   7.992   2.911
   77DIO    C1246271   6.023   8.001   2.920
   77DIO     F446272   5.958   8.082   2.834
   77DIO     O146273   6.372   7.877   2.985
   77DIO    C1346274   6.466   7.976   2.958
   77DIO     O246275   6.467   8.100   2.977
   77DIO    C1446276   6.595   7.920   2.916
   77DIO    C1546277   6.662   7.811   2.991
   77DIO     F546278   6.599   7.753   3.095
   77DIO    C1646279   6.792   7.760   2.954
   77DIO    C1746280   6.868   7.820   2.845
   77DIO    C1846281   6.799   7.916   2.760
   77DIO    C1946282   6.668   7.966   2.795
   77DIO     F646283   6.605   8.044   2.704
   77DIO    C2046284   7.009   7.775   2.814
   77DIO     O346285   7.079   7.720   2.926
   77DIO    C2146286   7.122   7.820   3.018
   77DIO    C2246287   7.211   7.923   2.949
   77DIO    C2346288   7.130   7.979   2.832
   77DIO     O446289   7.086   7.875   2.746
   77DIO    C2446290   7.344   7.863   2.897
   77DIO    C2546291   7.435   7.800   3.003
   77DIO    C2646292   7.473   7.894   3.116
   77DIO     H146293   5.753   7.903   2.816
   77DIO     H246294   5.794   7.987   3.248
   77DIO     H346295   5.971   7.775   3.183
   77DIO     H446296   6.222   7.755   3.160
   77DIO     H546297   6.221   8.050   2.838
   77DIO     H646298   6.831   7.674   3.008
   77DIO     H746299   6.842   7.948   2.666
   77DIO     H846300   6.999   7.693   2.742
   77DIO     H946301   7.036   7.868   3.064
   77DIO    H1046302   7.175   7.769   3.099
   77DIO    H1146303   7.234   8.004   3.019
   77DIO    H1246304   7.192   8.048   2.773
   77DIO    H1346305   7.044   8.037   2.868
   77DIO    H1446306   7.324   7.787   2.820
   77DIO    H1546307   7.400   7.943   2.847
   77DIO    H1646308   7.387   7.710   3.045
   77DIO    H1746309   7.526   7.765   2.953
   77DIO    H1846310   7.517   7.987   3.077
   77DIO    H1946311   7.387   7.920   3.177
   77DIO    H2046312   7.547   7.847   3.181
   78DIO     F146313   4.099   7.416   1.772
   78DIO     C146314   4.177   7.388   1.666
   78DIO     C246315   4.321   7.400   1.677
   78DIO     C346316   4.409   7.371   1.562
   78DIO     C446317   4.344   7.328   1.437
   78DIO     C546318   4.200   7.317   1.428
   78DIO     F246319   4.144   7.273   1.313
   78DIO     C646320   4.116   7.346   1.541
   78DIO     F346321   3.982   7.336   1.531
   78DIO     C746322   4.556   7.384   1.572
   78DIO     C846323   4.633   7.461   1.472
   78DIO     C946324   4.778   7.473   1.481
   78DIO    C1046325   4.850   7.401   1.584
   78DIO    C1146326   4.778   7.331   1.688
   78DIO    C1246327   4.634   7.321   1.681
   78DIO     F446328   4.569   7.250   1.775
   78DIO     O146329   4.982   7.436   1.601
   78DIO    C1346330   5.077   7.341   1.639
   78DIO     O246331   5.078   7.215   1.635
   78DIO    C1446332   5.206   7.401   1.675
   78DIO    C1546333   5.272   7.501   1.588
   78DIO     F546334   5.210   7.547   1.477
   78DIO    C1646335   5.403   7.556   1.618
   78DIO    C1746336   5.479   7.509   1.733
   78DIO    C1846337   5.410   7.424   1.829
   78DIO    C1946338   5.279   7.370   1.800
   78DIO     F646339   5.216   7.303   1.900
   78DIO    C2046340   5.620   7.557   1.760
   78DIO     O346341   5.689   7.599   1.642
   78DIO    C2146342   5.733   7.489   1.562
   78DIO    C2246343   5.822   7.395   1.643
   78DIO    C2346344   5.741   7.352   1.765
   78DIO     O446345   5.697   7.466   1.839
   78DIO    C2446346   5.955   7.460   1.687
   78DIO    C2546347   6.045   7.511   1.574
   78DIO    C2646348   6.084   7.404   1.473
   78DIO     H146349   4.363   7.430   1.772
   78DIO     H246350   4.405   7.297   1.352
   78DIO     H346351   4.581   7.514   1.393
   78DIO     H446352   4.833   7.537   1.413
   78DIO     H546353   4.832   7.282   1.768
   78DIO     H646354   5.441   7.636   1.555
   78DIO     H746355   5.453   7.403   1.927
   78DIO     H846356   5.610   7.648   1.821
   78DIO     H946357   5.646   7.436   1.522
   78DIO    H1046358   5.786   7.530   1.475
   78DIO    H1146359   5.844   7.306   1.583
   78DIO    H1246360   5.802   7.291   1.832
   78DIO    H1346361   5.655   7.291   1.736
   78DIO    H1446362   5.935   7.544   1.755
   78DIO    H1546363   6.011   7.387   1.746
   78DIO    H1646364   5.998   7.595   1.522
   78DIO    H1746365   6.137   7.551   1.619
   78DIO    H1846366   6.128   7.317   1.523
   78DIO    H1946367   5.997   7.371   1.415
   78DIO    H2046368   6.157   7.444   1.403
   79DIO     F146369   5.888   3.004   6.992
   79DIO     C146370   5.965   3.025   7.100
   79DIO     C246371   6.109   3.014   7.088
   79DIO     C346372   6.198   3.035   7.204
   79DIO     C446373   6.133   3.069   7.332
   79DIO     C546374   5.988   3.080   7.342
   79DIO     F246375   5.933   3.116   7.460
   79DIO     C646376   5.905   3.059   7.227
   79DIO     F346377   5.771   3.068   7.238
   79DIO     C746378   6.345   3.022   7.194
   79DIO     C846379   6.422   2.939   7.288
   79DIO     C946380   6.566   2.927   7.278
   79DIO    C1046381   6.639   3.006   7.181
   79DIO    C1146382   6.567   3.084   7.081
   79DIO    C1246383   6.422   3.093   7.090
   79DIO     F446384   6.358   3.170   7.000
   79DIO     O146385   6.771   2.972   7.161
   79DIO    C1346386   6.866   3.070   7.130
   79DIO     O246387   6.867   3.195   7.142
   79DIO    C1446388   6.995   3.013   7.090
   79DIO    C1546389   7.061   2.907   7.170
   79DIO     F546390   6.999   2.854   7.277
   79DIO    C1646391   7.192   2.854   7.136
   79DIO    C1746392   7.268   2.909   7.025
   79DIO    C1846393   7.199   3.001   6.934
   79DIO    C1946394   7.067   3.052   6.967
   79DIO     F646395   7.005   3.125   6.872
   79DIO    C2046396   7.408   2.863   6.995
   79DIO     O346397   7.478   2.813   7.110
   79DIO    C2146398   7.522   2.917   7.197
   79DIO    C2246399   7.611   3.016   7.123
   79DIO    C2346400   7.530   3.067   7.003
   79DIO     O446401   7.486   2.959   6.922
   79DIO    C2446402   7.744   2.954   7.074
   79DIO    C2546403   7.834   2.896   7.183
   79DIO    C2646404   7.873   2.996   7.291
   79DIO     H146405   6.152   2.990   6.991
   79DIO     H246406   6.193   3.095   7.419
   79DIO     H346407   6.370   2.881   7.363
   79DIO     H446408   6.622   2.860   7.342
   79DIO     H546409   6.621   3.138   7.005
   79DIO     H646410   7.230   2.770   7.194
   79DIO     H746411   7.242   3.027   6.839
   79DIO     H846412   7.399   2.776   6.928
   79DIO     H946413   7.435   2.968   7.240
   79DIO    H1046414   7.575   2.871   7.280
   79DIO    H1146415   7.633   3.101   7.188
   79DIO    H1246416   7.591   3.133   6.941
   79DIO    H1346417   7.444   3.126   7.037
   79DIO    H1446418   7.724   2.875   7.001
   79DIO    H1546419   7.800   3.032   7.020
   79DIO    H1646420   7.787   2.809   7.229
   79DIO    H1746421   7.926   2.859   7.135
   79DIO    H1846422   7.917   3.086   7.247
   79DIO    H1946423   7.786   3.025   7.351
   79DIO    H2046424   7.946   2.952   7.358
   80DIO     F146425   7.302   0.152   7.335
   80DIO     C146426   7.379   0.216   7.245
   80DIO     C246427   7.523   0.214   7.262
   80DIO     C346428   7.612   0.284   7.167
   80DIO     C446429   7.547   0.353   7.053
   80DIO     C546430   7.402   0.353   7.038
   80DIO     F246431   7.347   0.413   6.931
   80DIO     C646432   7.319   0.284   7.133
   80DIO     F346433   7.185   0.286   7.119
   80DIO     C746434   7.758   0.285   7.183
   80DIO     C846435   7.836   0.411   7.178
   80DIO     C946436   7.980   0.412   7.193
   80DIO    C1046437   8.053   0.287   7.203
   80DIO    C1146438   7.980   0.162   7.216
   80DIO    C1246439   7.836   0.161   7.203
   80DIO     F446440   7.771   0.043   7.210
   80DIO     O146441   8.185   0.296   7.241
   80DIO    C1346442   8.280   0.206   7.192
   80DIO     O246443   8.280   0.128   7.093
   80DIO    C1446444   8.409   0.217   7.261
   80DIO    C1546445   8.475   0.348   7.282
   80DIO     F546446   8.412   0.462   7.247
   80DIO    C1646447   8.606   0.360   7.344
   80DIO    C1746448   8.682   0.241   7.382
   80DIO    C1846449   8.613   0.113   7.378
   80DIO    C1946450   8.481   0.101   7.317
   80DIO     F646451   8.419  -0.018   7.330
   80DIO    C2046452   8.822   0.252   7.435
   80DIO     O346453   8.892   0.369   7.392
   80DIO    C2146454   8.936   0.360   7.257
   80DIO    C2246455   9.025   0.238   7.236
   80DIO    C2346456   8.944   0.117   7.282
   80DIO     O446457   8.900   0.133   7.416
   80DIO    C2446458   9.157   0.246   7.315
   80DIO    C2546459   9.248   0.365   7.281
   80DIO    C2646460   9.286   0.374   7.134
   80DIO     H146461   7.566   0.161   7.346
   80DIO     H246462   7.607   0.398   6.975
   80DIO     H346463   7.784   0.506   7.168
   80DIO     H446464   8.035   0.505   7.198
   80DIO     H546465   8.035   0.069   7.229
   80DIO     H646466   8.644   0.460   7.364
   80DIO     H746467   8.656   0.025   7.424
   80DIO     H846468   8.813   0.263   7.544
   80DIO     H946469   8.849   0.357   7.190
   80DIO    H1046470   8.988   0.453   7.232
   80DIO    H1146471   9.047   0.227   7.129
   80DIO    H1246472   9.005   0.026   7.278
   80DIO    H1346473   8.858   0.100   7.216
   80DIO    H1446474   9.137   0.248   7.423
   80DIO    H1546475   9.214   0.153   7.296
   80DIO    H1646476   9.201   0.458   7.313
   80DIO    H1746477   9.340   0.356   7.341
   80DIO    H1846478   9.330   0.280   7.099
   80DIO    H1946479   9.200   0.397   7.072
   80DIO    H2046480   9.360   0.453   7.120
   81DIO     F146481   1.862   6.057   7.068
   81DIO     C146482   1.940   6.131   6.987
   81DIO     C246483   2.084   6.128   7.004
   81DIO     C346484   2.173   6.210   6.919
   81DIO     C446485   2.107   6.293   6.815
   81DIO     C546486   1.963   6.295   6.801
   81DIO     F246487   1.907   6.369   6.703
   81DIO     C646488   1.879   6.214   6.886
   81DIO     F346489   1.745   6.218   6.872
   81DIO     C746490   2.319   6.209   6.935
   81DIO     C846491   2.396   6.334   6.947
   81DIO     C946492   2.541   6.333   6.962
   81DIO    C1046493   2.613   6.208   6.955
   81DIO    C1146494   2.541   6.082   6.951
   81DIO    C1246495   2.397   6.083   6.939
   81DIO     F446496   2.332   5.965   6.930
   81DIO     O146497   2.746   6.211   6.994
   81DIO    C1346498   2.840   6.129   6.934
   81DIO     O246499   2.841   6.065   6.826
   81DIO    C1446500   2.969   6.131   7.004
   81DIO    C1546501   3.036   6.257   7.042
   81DIO     F546502   2.973   6.375   7.022
   81DIO    C1646503   3.166   6.261   7.105
   81DIO    C1746504   3.242   6.139   7.126
   81DIO    C1846505   3.173   6.012   7.105
   81DIO    C1946506   3.042   6.008   7.044
   81DIO     F646507   2.979   5.888   7.040
   81DIO    C2046508   3.383   6.142   7.181
   81DIO     O346509   3.453   6.264   7.153
   81DIO    C2146510   3.496   6.273   7.018
   81DIO    C2246511   3.585   6.155   6.981
   81DIO    C2346512   3.504   6.028   7.011
   81DIO     O446513   3.460   6.027   7.146
   81DIO    C2446514   3.718   6.152   7.060
   81DIO    C2546515   3.809   6.274   7.043
   81DIO    C2646516   3.847   6.303   6.899
   81DIO     H146517   2.126   6.064   7.080
   81DIO     H246518   2.168   6.348   6.744
   81DIO     H346519   2.345   6.429   6.950
   81DIO     H446520   2.596   6.424   6.979
   81DIO     H546521   2.595   5.988   6.952
   81DIO     H646522   3.204   6.357   7.138
   81DIO     H746523   3.216   5.919   7.140
   81DIO     H846524   3.373   6.138   7.290
   81DIO     H946525   3.410   6.278   6.952
   81DIO    H1046526   3.549   6.368   7.007
   81DIO    H1146527   3.608   6.158   6.874
   81DIO    H1246528   3.565   5.939   6.994
   81DIO    H1346529   3.418   6.021   6.943
   81DIO    H1446530   3.698   6.139   7.168
   81DIO    H1546531   3.774   6.063   7.029
   81DIO    H1646532   3.761   6.363   7.087
   81DIO    H1746533   3.900   6.257   7.101
   81DIO    H1846534   3.891   6.214   6.852
   81DIO    H1946535   3.760   6.334   6.840
   81DIO    H2046536   3.921   6.383   6.895
   82DIO     F146537   6.589   7.470   1.611
   82DIO     C146538   6.667   7.379   1.672
   82DIO     C246539   6.811   7.387   1.657
   82DIO     C346540   6.900   7.287   1.721
   82DIO     C446541   6.834   7.183   1.803
   82DIO     C546542   6.690   7.178   1.817
   82DIO     F246543   6.635   7.083   1.896
   82DIO     C646544   6.606   7.276   1.752
   82DIO     F346545   6.473   7.269   1.765
   82DIO     C746546   7.046   7.292   1.706
   82DIO     C846547   7.123   7.172   1.666
   82DIO     C946548   7.268   7.177   1.652
   82DIO    C1046549   7.341   7.298   1.686
   82DIO    C1146550   7.268   7.419   1.719
   82DIO    C1246551   7.124   7.415   1.731
   82DIO     F446552   7.059   7.528   1.766
   82DIO     O146553   7.473   7.303   1.647
   82DIO    C1346554   7.567   7.370   1.725
   82DIO     O246555   7.568   7.407   1.845
   82DIO    C1446556   7.696   7.384   1.657
   82DIO    C1546557   7.763   7.269   1.591
   82DIO     F546558   7.700   7.150   1.584
   82DIO    C1646559   7.894   7.279   1.529
   82DIO    C1746560   7.969   7.404   1.536
   82DIO    C1846561   7.901   7.522   1.585
   82DIO    C1946562   7.769   7.512   1.646
   82DIO     F646563   7.706   7.628   1.676
   82DIO    C2046564   8.110   7.413   1.482
   82DIO     O346565   8.180   7.288   1.481
   82DIO    C2146566   8.223   7.248   1.610
   82DIO    C2246567   8.312   7.355   1.673
   82DIO    C2346568   8.232   7.485   1.673
   82DIO     O446569   8.187   7.517   1.542
   82DIO    C2446570   8.445   7.376   1.597
   82DIO    C2546571   8.536   7.253   1.586
   82DIO    C2646572   8.574   7.193   1.720
   82DIO     H146573   6.854   7.466   1.597
   82DIO     H246574   6.895   7.113   1.861
   82DIO     H346575   7.072   7.080   1.642
   82DIO     H446576   7.323   7.092   1.614
   82DIO     H546577   7.323   7.511   1.739
   82DIO     H646578   7.932   7.194   1.474
   82DIO     H746579   7.943   7.621   1.572
   82DIO     H846580   8.100   7.441   1.376
   82DIO     H946581   8.137   7.228   1.674
   82DIO    H1046582   8.276   7.153   1.600
   82DIO    H1146583   8.335   7.328   1.776
   82DIO    H1246584   8.293   7.568   1.709
   82DIO    H1346585   8.145   7.477   1.741
   82DIO    H1446586   8.425   7.412   1.495
   82DIO    H1546587   8.502   7.455   1.647
   82DIO    H1646588   8.488   7.176   1.523
   82DIO    H1746589   8.628   7.282   1.533
   82DIO    H1846590   8.618   7.268   1.786
   82DIO    H1946591   8.488   7.148   1.770
   82DIO    H2046592   8.648   7.113   1.705
   83DIO     F146593   5.657   8.755   9.097
   83DIO     C146594   5.735   8.826   9.181
   83DIO     C246595   5.879   8.810   9.176
   83DIO     C346596   5.968   8.885   9.267
   83DIO     C446597   5.902   8.978   9.363
   83DIO     C546598   5.758   8.992   9.366
   83DIO     F246599   5.703   9.081   9.451
   83DIO     C646600   5.674   8.917   9.276
   83DIO     F346601   5.541   8.931   9.281
   83DIO     C746602   6.114   8.869   9.264
   83DIO     C846603   6.191   8.842   9.388
   83DIO     C946604   6.336   8.828   9.384
   83DIO    C1046605   6.409   8.849   9.261
   83DIO    C1146606   6.336   8.868   9.136
   83DIO    C1246607   6.192   8.880   9.139
   83DIO     F446608   6.127   8.904   9.023
   83DIO     O146609   6.541   8.810   9.260
   83DIO    C1346610   6.635   8.880   9.185
   83DIO     O246611   6.636   8.995   9.135
   83DIO    C1446612   6.765   8.810   9.179
   83DIO    C1546613   6.831   8.757   9.300
   83DIO     F546614   6.768   8.763   9.419
   83DIO    C1646615   6.962   8.694   9.296
   83DIO    C1746616   7.037   8.688   9.172
   83DIO    C1846617   6.969   8.724   9.048
   83DIO    C1946618   6.837   8.785   9.052
   83DIO     F646619   6.775   8.803   8.934
   83DIO    C2046620   7.178   8.633   9.169
   83DIO     O346621   7.248   8.646   9.293
   83DIO    C2146622   7.292   8.779   9.318
   83DIO    C2246623   7.380   8.829   9.205
   83DIO    C2346624   7.300   8.816   9.076
   83DIO     O446625   7.255   8.682   9.058
   83DIO    C2446626   7.513   8.752   9.193
   83DIO    C2546627   7.604   8.754   9.316
   83DIO    C2646628   7.642   8.894   9.362
   83DIO     H146629   5.922   8.742   9.103
   83DIO     H246630   5.963   9.042   9.425
   83DIO     H346631   6.140   8.828   9.482
   83DIO     H446632   6.391   8.800   9.473
   83DIO     H546633   6.391   8.879   9.043
   83DIO     H646634   7.000   8.650   9.387
   83DIO     H746635   7.012   8.701   8.952
   83DIO     H846636   7.168   8.525   9.152
   83DIO     H946637   7.205   8.844   9.331
   83DIO    H1046638   7.344   8.779   9.414
   83DIO    H1146639   7.403   8.935   9.221
   83DIO    H1246640   7.361   8.843   8.989
   83DIO    H1346641   7.214   8.884   9.077
   83DIO    H1446642   7.493   8.647   9.168
   83DIO    H1546643   7.570   8.793   9.108
   83DIO    H1646644   7.557   8.700   9.399
   83DIO    H1746645   7.696   8.699   9.293
   83DIO    H1846646   7.686   8.951   9.280
   83DIO    H1946647   7.556   8.949   9.400
   83DIO    H2046648   7.716   8.888   9.443
   84DIO     F146649   2.617   0.700   3.822
   84DIO     C146650   2.695   0.650   3.724
   84DIO     C246651   2.839   0.664   3.733
   84DIO     C346652   2.928   0.613   3.627
   84DIO     C446653   2.862   0.545   3.513
   84DIO     C546654   2.718   0.532   3.506
   84DIO     F246655   2.663   0.466   3.402
   84DIO     C646656   2.634   0.584   3.611
   84DIO     F346657   2.501   0.572   3.603
   84DIO     C746658   3.074   0.628   3.634
   84DIO     C846659   3.151   0.683   3.520
   84DIO     C946660   3.296   0.696   3.526
   84DIO    C1046661   3.369   0.647   3.642
   84DIO    C1146662   3.296   0.599   3.758
   84DIO    C1246663   3.152   0.588   3.753
   84DIO     F446664   3.087   0.538   3.860
   84DIO     O146665   3.501   0.685   3.652
   84DIO    C1346666   3.595   0.599   3.708
   84DIO     O246667   3.596   0.475   3.730
   84DIO    C1446668   3.724   0.665   3.731
   84DIO    C1546669   3.791   0.745   3.625
   84DIO     F546670   3.728   0.767   3.508
   84DIO    C1646671   3.922   0.805   3.643
   84DIO    C1746672   3.997   0.783   3.766
   84DIO    C1846673   3.929   0.719   3.877
   84DIO    C1946674   3.797   0.660   3.859
   84DIO     F646675   3.734   0.616   3.971
   84DIO    C2046676   4.138   0.835   3.782
   84DIO     O346677   4.208   0.852   3.658
   84DIO    C2146678   4.251   0.728   3.602
   84DIO    C2246679   4.340   0.653   3.700
   84DIO    C2346680   4.260   0.636   3.829
   84DIO     O446681   4.215   0.762   3.878
   84DIO    C2446682   4.473   0.726   3.730
   84DIO    C2546683   4.564   0.752   3.610
   84DIO    C2646684   4.602   0.627   3.533
   84DIO     H146685   2.882   0.714   3.820
   84DIO     H246686   2.923   0.497   3.437
   84DIO     H346687   3.100   0.718   3.432
   84DIO     H446688   3.351   0.744   3.447
   84DIO     H546689   3.351   0.567   3.846
   84DIO     H646690   3.960   0.870   3.565
   84DIO     H746691   3.971   0.719   3.977
   84DIO     H846692   4.128   0.936   3.823
   84DIO     H946693   4.165   0.668   3.574
   84DIO    H1046694   4.304   0.750   3.509
   84DIO    H1146695   4.363   0.553   3.660
   84DIO    H1246696   4.321   0.590   3.907
   84DIO    H1346697   4.173   0.570   3.813
   84DIO    H1446698   4.453   0.822   3.779
   84DIO    H1546699   4.530   0.666   3.803
   84DIO    H1646700   4.516   0.824   3.542
   84DIO    H1746701   4.656   0.800   3.646
   84DIO    H1846702   4.646   0.552   3.599
   84DIO    H1946703   4.516   0.582   3.483
   84DIO    H2046704   4.676   0.651   3.456
   85DIO     F146705   6.431   9.272   2.385
   85DIO     C146706   6.509   9.242   2.491
   85DIO     C246707   6.653   9.238   2.475
   85DIO     C346708   6.742   9.203   2.588
   85DIO     C446709   6.676   9.176   2.718
   85DIO     C546710   6.532   9.181   2.732
   85DIO     F246711   6.476   9.160   2.853
   85DIO     C646712   6.448   9.215   2.619
   85DIO     F346713   6.314   9.218   2.633
   85DIO     C746714   6.888   9.197   2.573
   85DIO     C846715   6.965   9.080   2.619
   85DIO     C946716   7.110   9.074   2.605
   85DIO    C1046717   7.182   9.189   2.554
   85DIO    C1146718   7.110   9.303   2.501
   85DIO    C1246719   6.966   9.307   2.513
   85DIO     F446720   6.901   9.417   2.467
   85DIO     O146721   7.315   9.168   2.521
   85DIO    C1346722   7.409   9.269   2.538
   85DIO     O246723   7.410   9.375   2.605
   85DIO    C1446724   7.538   9.236   2.476
   85DIO    C1546725   7.604   9.105   2.500
   85DIO     F546726   7.542   9.009   2.571
   85DIO    C1646727   7.735   9.073   2.446
   85DIO    C1746728   7.811   9.173   2.371
   85DIO    C1846729   7.742   9.296   2.332
   85DIO    C1946730   7.611   9.327   2.385
   85DIO     F646731   7.548   9.435   2.334
   85DIO    C2046732   7.952   9.145   2.324
   85DIO     O346733   8.021   9.049   2.403
   85DIO    C2146734   8.065   9.102   2.528
   85DIO    C2246735   8.154   9.224   2.507
   85DIO    C2346736   8.073   9.324   2.424
   85DIO     O446737   8.029   9.264   2.302
   85DIO    C2446738   8.287   9.191   2.435
   85DIO    C2546739   8.377   9.090   2.506
   85DIO    C2646740   8.416   9.130   2.648
   85DIO     H146741   6.695   9.261   2.378
   85DIO     H246742   6.737   9.160   2.807
   85DIO     H346743   6.914   8.994   2.660
   85DIO     H446744   7.165   8.985   2.631
   85DIO     H546745   7.164   9.386   2.458
   85DIO     H646746   7.773   8.973   2.459
   85DIO     H746747   7.785   9.363   2.259
   85DIO     H846748   7.942   9.099   2.225
   85DIO     H946749   7.978   9.128   2.590
   85DIO    H1046750   8.118   9.023   2.581
   85DIO    H1146751   8.177   9.270   2.604
   85DIO    H1246752   8.134   9.411   2.398
   85DIO    H1346753   7.987   9.361   2.481
   85DIO    H1446754   8.267   9.154   2.334
   85DIO    H1546755   8.343   9.284   2.423
   85DIO    H1646756   8.330   8.991   2.508
   85DIO    H1746757   8.469   9.079   2.447
   85DIO    H1846758   8.460   9.230   2.650
   85DIO    H1946759   8.329   9.129   2.715
   85DIO    H2046760   8.490   9.060   2.688
   86DIO     F146761   6.115   2.186   2.983
   86DIO     C146762   6.193   2.161   3.090
   86DIO     C246763   6.337   2.156   3.074
   86DIO     C346764   6.426   2.127   3.189
   86DIO     C446765   6.360   2.106   3.320
   86DIO     C546766   6.216   2.112   3.333
   86DIO     F246767   6.161   2.096   3.455
   86DIO     C646768   6.132   2.140   3.219
   86DIO     F346769   5.999   2.143   3.233
   86DIO     C746770   6.572   2.120   3.174
   86DIO     C846771   6.649   2.005   3.226
   86DIO     C946772   6.794   1.999   3.212
   86DIO    C1046773   6.867   2.111   3.156
   86DIO    C1146774   6.794   2.222   3.097
   86DIO    C1246775   6.650   2.227   3.108
   86DIO     F446776   6.585   2.334   3.058
   86DIO     O146777   6.999   2.088   3.124
   86DIO    C1346778   7.093   2.190   3.135
   86DIO     O246779   7.094   2.299   3.198
   86DIO    C1446780   7.222   2.154   3.076
   86DIO    C1546781   7.289   2.025   3.105
   86DIO     F546782   7.226   1.932   3.181
   86DIO    C1646783   7.420   1.990   3.053
   86DIO    C1746784   7.495   2.086   2.973
   86DIO    C1846785   7.427   2.207   2.929
   86DIO    C1946786   7.295   2.240   2.980
   86DIO     F646787   7.232   2.346   2.923
   86DIO    C2046788   7.636   2.056   2.927
   86DIO     O346789   7.706   1.964   3.012
   86DIO    C2146790   7.749   2.023   3.134
   86DIO    C2246791   7.838   2.144   3.107
   86DIO    C2346792   7.758   2.239   3.019
   86DIO     O446793   7.713   2.173   2.900
   86DIO    C2446794   7.971   2.107   3.037
   86DIO    C2546795   8.062   2.009   3.112
   86DIO    C2646796   8.100   2.056   3.252
   86DIO     H146797   6.380   2.174   2.976
   86DIO     H246798   6.421   2.094   3.409
   86DIO     H346799   6.598   1.921   3.271
   86DIO     H446800   6.849   1.911   3.243
   86DIO     H546801   6.849   2.303   3.050
   86DIO     H646802   7.458   1.890   3.071
   86DIO     H746803   7.469   2.270   2.852
   86DIO     H846804   7.626   2.005   2.831
   86DIO     H946805   7.663   2.051   3.194
   86DIO    H1046806   7.802   1.946   3.191
   86DIO    H1146807   7.861   2.194   3.202
   86DIO    H1246808   7.819   2.325   2.989
   86DIO    H1346809   7.671   2.279   3.074
   86DIO    H1446810   7.951   2.065   2.938
   86DIO    H1546811   8.028   2.200   3.020
   86DIO    H1646812   8.014   1.911   3.119
   86DIO    H1746813   8.154   1.995   3.054
   86DIO    H1846814   8.144   2.157   3.249
   86DIO    H1946815   8.014   2.058   3.319
   86DIO    H2046816   8.174   1.988   3.295
   87DIO     F146817   1.440   7.900   4.426
   87DIO     C146818   1.518   7.790   4.423
   87DIO     C246819   1.662   7.805   4.415
   87DIO     C346820   1.751   7.687   4.409
   87DIO     C446821   1.685   7.554   4.415
   87DIO     C546822   1.541   7.542   4.423
   87DIO     F246823   1.486   7.419   4.432
   87DIO     C646824   1.457   7.659   4.428
   87DIO     F346825   1.324   7.647   4.434
   87DIO     C746826   1.897   7.700   4.400
   87DIO     C846827   1.974   7.626   4.297
   87DIO     C946828   2.119   7.638   4.288
   87DIO    C1046829   2.192   7.716   4.387
   87DIO    C1146830   2.119   7.796   4.484
   87DIO    C1246831   1.975   7.785   4.492
   87DIO     F446832   1.910   7.856   4.586
   87DIO     O146833   2.324   7.743   4.358
   87DIO    C1346834   2.418   7.751   4.460
   87DIO     O246835   2.419   7.712   4.580
   87DIO    C1446836   2.547   7.803   4.413
   87DIO    C1546837   2.614   7.748   4.293
   87DIO     F546838   2.551   7.656   4.217
   87DIO    C1646839   2.745   7.793   4.248
   87DIO    C1746840   2.820   7.890   4.327
   87DIO    C1846841   2.752   7.957   4.436
   87DIO    C1946842   2.620   7.914   4.479
   87DIO     F646843   2.557   7.990   4.571
   87DIO    C2046844   2.961   7.929   4.288
   87DIO     O346845   3.031   7.828   4.214
   87DIO    C2146846   3.074   7.720   4.296
   87DIO    C2246847   3.163   7.770   4.410
   87DIO    C2346848   3.083   7.875   4.486
   87DIO     O446849   3.038   7.978   4.398
   87DIO    C2446850   3.296   7.832   4.360
   87DIO    C2546851   3.387   7.738   4.279
   87DIO    C2646852   3.425   7.611   4.353
   87DIO     H146853   1.705   7.905   4.413
   87DIO     H246854   1.746   7.464   4.421
   87DIO     H346855   1.923   7.566   4.224
   87DIO     H446856   2.174   7.591   4.208
   87DIO     H546857   2.174   7.858   4.554
   87DIO     H646858   2.783   7.755   4.154
   87DIO     H746859   2.794   8.045   4.483
   87DIO     H846860   2.951   8.013   4.219
   87DIO     H946861   2.988   7.666   4.336
   87DIO    H1046862   3.127   7.649   4.232
   87DIO    H1146863   3.186   7.687   4.477
   87DIO    H1246864   3.144   7.922   4.564
   87DIO    H1346865   2.996   7.830   4.536
   87DIO    H1446866   3.276   7.921   4.299
   87DIO    H1546867   3.353   7.867   4.447
   87DIO    H1646868   3.339   7.713   4.184
   87DIO    H1746869   3.479   7.793   4.254
   87DIO    H1846870   3.469   7.633   4.450
   87DIO    H1946871   3.339   7.546   4.368
   87DIO    H2046872   3.499   7.555   4.294
   88DIO     F146873   5.431   4.867   9.752
   88DIO     C146874   5.508   4.781   9.684
   88DIO     C246875   5.652   4.797   9.686
   88DIO     C346876   5.741   4.706   9.611
   88DIO     C446877   5.676   4.596   9.536
   88DIO     C546878   5.531   4.581   9.536
   88DIO     F246879   5.476   4.478   9.470
   88DIO     C646880   5.448   4.673   9.610
   88DIO     F346881   5.314   4.659   9.607
   88DIO     C746882   5.888   4.722   9.611
   88DIO     C846883   5.965   4.724   9.485
   88DIO     C946884   6.109   4.739   9.485
   88DIO    C1046885   6.182   4.743   9.611
   88DIO    C1146886   6.110   4.749   9.736
   88DIO    C1246887   5.965   4.736   9.736
   88DIO     F446888   5.901   4.736   9.854
   88DIO     O146889   6.314   4.781   9.604
   88DIO    C1346890   6.409   4.727   9.691
   88DIO     O246891   6.410   4.624   9.763
   88DIO    C1446892   6.538   4.797   9.683
   88DIO    C1546893   6.604   4.825   9.554
   88DIO     F546894   6.542   4.795   9.438
   88DIO    C1646895   6.735   4.887   9.545
   88DIO    C1746896   6.811   4.918   9.666
   88DIO    C1846897   6.742   4.907   9.794
   88DIO    C1946898   6.610   4.846   9.802
   88DIO     F646899   6.548   4.853   9.922
   88DIO    C2046900   6.951   4.972   9.658
   88DIO     O346901   7.021   4.935   9.538
   88DIO    C2146902   7.065   4.800   9.540
   88DIO    C2246903   7.154   4.773   9.661
   88DIO    C2346904   7.073   4.812   9.785
   88DIO     O446905   7.029   4.947   9.776
   88DIO    C2446906   7.287   4.852   9.658
   88DIO    C2546907   7.377   4.825   9.537
   88DIO    C2646908   7.416   4.678   9.521
   88DIO     H146909   5.695   4.879   9.744
   88DIO     H246910   5.736   4.520   9.488
   88DIO     H346911   5.913   4.719   9.390
   88DIO     H446912   6.165   4.749   9.393
   88DIO     H546913   6.164   4.757   9.829
   88DIO     H646914   6.773   4.913   9.447
   88DIO     H746915   6.785   4.949   9.884
   88DIO     H846916   6.942   5.082   9.653
   88DIO     H946917   6.978   4.733   9.540
   88DIO    H1046918   7.118   4.780   9.446
   88DIO    H1146919   7.176   4.666   9.666
   88DIO    H1246920   7.134   4.803   9.875
   88DIO    H1346921   6.987   4.745   9.798
   88DIO    H1446922   7.267   4.959   9.661
   88DIO    H1546923   7.343   4.828   9.749
   88DIO    H1646924   7.330   4.861   9.445
   88DIO    H1746925   7.469   4.884   9.549
   88DIO    H1846926   7.460   4.638   9.612
   88DIO    H1946927   7.329   4.617   9.494
   88DIO    H2046928   7.489   4.668   9.440
   89DIO     F146929   0.518   6.789   2.597
   89DIO     C146930   0.596   6.722   2.685
   89DIO     C246931   0.740   6.724   2.668
   89DIO     C346932   0.828   6.651   2.761
   89DIO     C446933   0.763   6.578   2.872
   89DIO     C546934   0.619   6.578   2.886
   89DIO     F246935   0.563   6.514   2.991
   89DIO     C646936   0.535   6.650   2.794
   89DIO     F346937   0.401   6.648   2.808
   89DIO     C746938   0.975   6.651   2.745
   89DIO     C846939   1.052   6.524   2.745
   89DIO     C946940   1.197   6.524   2.730
   89DIO    C1046941   1.269   6.650   2.724
   89DIO    C1146942   1.197   6.775   2.716
   89DIO    C1246943   1.053   6.775   2.728
   89DIO     F446944   0.988   6.893   2.726
   89DIO     O146945   1.401   6.642   2.686
   89DIO    C1346946   1.496   6.730   2.738
   89DIO     O246947   1.497   6.804   2.839
   89DIO    C1446948   1.625   6.721   2.668
   89DIO    C1546949   1.691   6.592   2.643
   89DIO     F546950   1.629   6.476   2.674
   89DIO    C1646951   1.822   6.582   2.581
   89DIO    C1746952   1.898   6.702   2.547
   89DIO    C1846953   1.829   6.830   2.556
   89DIO    C1946954   1.698   6.840   2.617
   89DIO     F646955   1.635   6.959   2.608
   89DIO    C2046956   2.039   6.693   2.493
   89DIO     O346957   2.108   6.574   2.532
   89DIO    C2146958   2.152   6.578   2.668
   89DIO    C2246959   2.241   6.700   2.693
   89DIO    C2346960   2.160   6.823   2.652
   89DIO     O446961   2.116   6.811   2.517
   89DIO    C2446962   2.374   6.695   2.614
   89DIO    C2546963   2.464   6.575   2.643
   89DIO    C2646964   2.503   6.561   2.790
   89DIO     H146965   0.782   6.781   2.586
   89DIO     H246966   0.824   6.531   2.948
   89DIO     H346967   1.000   6.430   2.752
   89DIO     H446968   1.252   6.432   2.722
   89DIO     H546969   1.251   6.868   2.706
   89DIO     H646970   1.860   6.483   2.557
   89DIO     H746971   1.872   6.919   2.512
   89DIO     H846972   2.029   6.686   2.384
   89DIO     H946973   2.065   6.580   2.735
   89DIO    H1046974   2.205   6.485   2.689
   89DIO    H1146975   2.263   6.707   2.800
   89DIO    H1246976   2.221   6.913   2.659
   89DIO    H1346977   2.074   6.837   2.718
   89DIO    H1446978   2.354   6.697   2.506
   89DIO    H1546979   2.430   6.786   2.636
   89DIO    H1646980   2.417   6.482   2.609
   89DIO    H1746981   2.556   6.586   2.584
   89DIO    H1846982   2.547   6.653   2.828
   89DIO    H1946983   2.416   6.535   2.851
   89DIO    H2046984   2.576   6.481   2.801
   90DIO     F146985   4.487   1.405   0.210
   90DIO     C146986   4.564   1.512   0.232
   90DIO     C246987   4.708   1.496   0.238
   90DIO     C346988   4.797   1.612   0.264
   90DIO     C446989   4.732   1.743   0.282
   90DIO     C546990   4.587   1.757   0.276
   90DIO     F246991   4.532   1.879   0.288
   90DIO     C646992   4.504   1.642   0.250
   90DIO     F346993   4.370   1.656   0.246
   90DIO     C746994   4.944   1.597   0.271
   90DIO     C846995   5.021   1.652   0.385
   90DIO     C946996   5.165   1.638   0.391
   90DIO    C1046997   5.238   1.579   0.281
   90DIO    C1146998   5.165   1.518   0.171
   90DIO    C1246999   5.021   1.529   0.166
   90DIO     F447000   4.956   1.476   0.060
   90DIO     O147001   5.370   1.548   0.304
   90DIO    C1347002   5.465   1.557   0.202
   90DIO     O247003   5.466   1.617   0.092
   90DIO    C1447004   5.594   1.498   0.240
   90DIO    C1547005   5.660   1.531   0.368
   90DIO     F547006   5.597   1.609   0.459
   90DIO    C1647007   5.791   1.479   0.404
   90DIO    C1747008   5.867   1.397   0.310
   90DIO    C1847009   5.798   1.350   0.190
   90DIO    C1947010   5.666   1.400   0.156
   90DIO     F647011   5.604   1.341   0.051
   90DIO    C2047012   6.007   1.352   0.341
   90DIO     O347013   6.077   1.439   0.431
   90DIO    C2147014   6.121   1.559   0.369
   90DIO    C2247015   6.210   1.530   0.249
   90DIO    C2347016   6.129   1.439   0.156
   90DIO     O447017   6.085   1.323   0.224
   90DIO    C2447018   6.342   1.461   0.287
   90DIO    C2547019   6.433   1.538   0.383
   90DIO    C2647020   6.472   1.677   0.333
   90DIO     H147021   4.751   1.398   0.222
   90DIO     H247022   4.792   1.833   0.291
   90DIO     H347023   4.969   1.699   0.468
   90DIO     H447024   5.220   1.671   0.479
   90DIO     H547025   5.220   1.469   0.091
   90DIO     H647026   5.829   1.500   0.503
   90DIO     H747027   5.841   1.272   0.129
   90DIO     H847028   5.998   1.257   0.395
   90DIO     H947029   6.034   1.619   0.339
   90DIO    H1047030   6.174   1.618   0.445
   90DIO    H1147031   6.232   1.623   0.197
   90DIO    H1247032   6.190   1.407   0.071
   90DIO    H1347033   6.043   1.493   0.114
   90DIO    H1447034   6.323   1.362   0.332
   90DIO    H1547035   6.399   1.441   0.195
   90DIO    H1647036   6.386   1.547   0.482
   90DIO    H1747037   6.525   1.480   0.399
   90DIO    H1847038   6.515   1.672   0.233
   90DIO    H1947039   6.385   1.744   0.329
   90DIO    H2047040   6.545   1.722   0.400
   91DIO     F147041   4.846   9.412   5.318
   91DIO     C147042   4.924   9.320   5.379
   91DIO     C247043   5.068   9.328   5.364
   91DIO     C347044   5.157   9.228   5.427
   91DIO     C447045   5.091   9.122   5.508
   91DIO     C547046   4.947   9.117   5.522
   91DIO     F247047   4.891   9.022   5.600
   91DIO     C647048   4.863   9.216   5.458
   91DIO     F347049   4.729   9.209   5.471
   91DIO     C747050   5.303   9.233   5.412
   91DIO     C847051   5.380   9.113   5.371
   91DIO     C947052   5.525   9.118   5.356
   91DIO    C1047053   5.597   9.238   5.392
   91DIO    C1147054   5.525   9.360   5.426
   91DIO    C1247055   5.381   9.356   5.438
   91DIO     F447056   5.316   9.468   5.474
   91DIO     O147057   5.730   9.244   5.353
   91DIO    C1347058   5.824   9.310   5.432
   91DIO     O247059   5.825   9.346   5.552
   91DIO    C1447060   5.953   9.325   5.364
   91DIO    C1547061   6.020   9.210   5.297
   91DIO     F547062   5.957   9.091   5.288
   91DIO    C1647063   6.150   9.221   5.235
   91DIO    C1747064   6.226   9.346   5.243
   91DIO    C1847065   6.157   9.464   5.293
   91DIO    C1947066   6.026   9.453   5.354
   91DIO     F647067   5.963   9.569   5.385
   91DIO    C2047068   6.367   9.355   5.189
   91DIO     O347069   6.437   9.230   5.187
   91DIO    C2147070   6.480   9.190   5.316
   91DIO    C2247071   6.569   9.296   5.379
   91DIO    C2347072   6.488   9.426   5.381
   91DIO     O447073   6.444   9.459   5.250
   91DIO    C2447074   6.702   9.317   5.303
   91DIO    C2547075   6.793   9.194   5.291
   91DIO    C2647076   6.831   9.133   5.425
   91DIO     H147077   5.110   9.408   5.305
   91DIO     H247078   5.152   9.052   5.565
   91DIO     H347079   5.329   9.022   5.346
   91DIO     H447080   5.580   9.033   5.318
   91DIO     H547081   5.579   9.451   5.447
   91DIO     H647082   6.188   9.136   5.179
   91DIO     H747083   6.200   9.563   5.281
   91DIO     H847084   6.357   9.385   5.083
   91DIO     H947085   6.394   9.169   5.379
   91DIO    H1047086   6.533   9.094   5.305
   91DIO    H1147087   6.592   9.267   5.483
   91DIO    H1247088   6.549   9.509   5.418
   91DIO    H1347089   6.402   9.417   5.448
   91DIO    H1447090   6.682   9.355   5.202
   91DIO    H1547091   6.758   9.396   5.354
   91DIO    H1647092   6.745   9.118   5.228
   91DIO    H1747093   6.884   9.225   5.239
   91DIO    H1847094   6.875   9.207   5.492
   91DIO    H1947095   6.744   9.088   5.475
   91DIO    H2047096   6.905   9.053   5.410
   92DIO     F147097   6.974   2.008   3.541
   92DIO     C147098   7.052   1.937   3.625
   92DIO     C247099   7.196   1.940   3.608
   92DIO     C347100   7.284   1.861   3.697
   92DIO     C447101   7.219   1.783   3.804
   92DIO     C547102   7.075   1.782   3.818
   92DIO     F247103   7.019   1.712   3.920
   92DIO     C647104   6.991   1.859   3.730
   92DIO     F347105   6.857   1.856   3.744
   92DIO     C747106   7.431   1.862   3.681
   92DIO     C847107   7.508   1.736   3.674
   92DIO     C947108   7.653   1.737   3.659
   92DIO    C1047109   7.725   1.862   3.660
   92DIO    C1147110   7.653   1.988   3.658
   92DIO    C1247111   7.509   1.987   3.671
   92DIO     F447112   7.444   2.105   3.675
   92DIO     O147113   7.857   1.856   3.621
   92DIO    C1347114   7.952   1.942   3.678
   92DIO     O247115   7.953   2.010   3.783
   92DIO    C1447116   8.081   1.937   3.608
   92DIO    C1547117   8.147   1.809   3.576
   92DIO     F547118   8.085   1.692   3.601
   92DIO    C1647119   8.278   1.802   3.513
   92DIO    C1747120   8.354   1.923   3.486
   92DIO    C1847121   8.285   2.051   3.502
   92DIO    C1947122   8.154   2.058   3.563
   92DIO     F647123   8.091   2.177   3.561
   92DIO    C2047124   8.495   1.918   3.432
   92DIO     O347125   8.564   1.797   3.465
   92DIO    C2147126   8.608   1.794   3.600
   92DIO    C2247127   8.697   1.914   3.632
   92DIO    C2347128   8.616   2.039   3.597
   92DIO     O447129   8.572   2.034   3.462
   92DIO    C2447130   8.830   1.913   3.553
   92DIO    C2547131   8.920   1.792   3.575
   92DIO    C2647132   8.959   1.770   3.721
   92DIO     H147133   7.238   2.000   3.529
   92DIO     H247134   7.280   1.731   3.878
   92DIO     H347135   7.456   1.641   3.676
   92DIO     H447136   7.708   1.644   3.646
   92DIO     H547137   7.707   2.081   3.653
   92DIO     H647138   8.316   1.705   3.484
   92DIO     H747139   8.328   2.143   3.463
   92DIO     H847140   8.485   1.916   3.323
   92DIO     H947141   8.521   1.792   3.667
   92DIO    H1047142   8.661   1.699   3.616
   92DIO    H1147143   8.719   1.915   3.739
   92DIO    H1247144   8.677   2.129   3.609
   92DIO    H1347145   8.530   2.050   3.664
   92DIO    H1447146   8.810   1.921   3.445
   92DIO    H1547147   8.886   2.003   3.580
   92DIO    H1647148   8.873   1.701   3.536
   92DIO    H1747149   9.012   1.806   3.517
   92DIO    H1847150   9.003   1.860   3.764
   92DIO    H1947151   8.872   1.741   3.781
   92DIO    H2047152   9.032   1.689   3.728
   93DIO     F147153   3.190   8.338   1.056
   93DIO     C147154   3.267   8.237   1.100
   93DIO     C247155   3.411   8.247   1.086
   93DIO     C347156   3.500   8.138   1.131
   93DIO     C447157   3.435   8.020   1.192
   93DIO     C547158   3.290   8.012   1.204
   93DIO     F247159   3.235   7.905   1.264
   93DIO     C647160   3.207   8.121   1.159
   93DIO     F347161   3.073   8.112   1.170
   93DIO     C747162   3.647   8.146   1.117
   93DIO     C847163   3.724   8.035   1.055
   93DIO     C947164   3.868   8.043   1.041
   93DIO    C1047165   3.941   8.155   1.098
   93DIO    C1147166   3.869   8.268   1.153
   93DIO    C1247167   3.724   8.262   1.164
   93DIO     F447168   3.660   8.366   1.220
   93DIO     O147169   4.073   8.167   1.061
   93DIO    C1347170   4.168   8.218   1.149
   93DIO     O247171   4.169   8.233   1.275
   93DIO    C1447172   4.297   8.245   1.085
   93DIO    C1547173   4.363   8.144   0.999
   93DIO     F547174   4.301   8.028   0.970
   93DIO    C1647175   4.494   8.166   0.940
   93DIO    C1747176   4.570   8.287   0.970
   93DIO    C1847177   4.501   8.394   1.041
   93DIO    C1947178   4.369   8.373   1.098
   93DIO     F647179   4.307   8.481   1.149
   93DIO    C2047180   4.710   8.306   0.919
   93DIO     O347181   4.780   8.183   0.894
   93DIO    C2147182   4.824   8.120   1.014
   93DIO    C2247183   4.913   8.214   1.096
   93DIO    C2347184   4.832   8.341   1.120
   93DIO     O447185   4.788   8.397   0.997
   93DIO    C2447186   5.046   8.248   1.025
   93DIO    C2547187   5.136   8.129   0.991
   93DIO    C2647188   5.175   8.045   1.111
   93DIO     H147189   3.454   8.337   1.042
   93DIO     H247190   3.495   7.941   1.235
   93DIO     H347191   3.672   7.950   1.014
   93DIO     H447192   3.924   7.966   0.989
   93DIO     H547193   3.923   8.354   1.190
   93DIO     H647194   4.532   8.092   0.870
   93DIO     H747195   4.544   8.494   1.046
   93DIO     H847196   4.701   8.353   0.820
   93DIO     H947197   4.737   8.089   1.073
   93DIO    H1047198   4.877   8.029   0.986
   93DIO    H1147199   4.935   8.167   1.192
   93DIO    H1247200   4.893   8.416   1.171
   93DIO    H1347201   4.746   8.321   1.185
   93DIO    H1447202   5.026   8.303   0.932
   93DIO    H1547203   5.102   8.317   1.089
   93DIO    H1647204   5.089   8.066   0.915
   93DIO    H1747205   5.228   8.168   0.945
   93DIO    H1847206   5.219   8.107   1.190
   93DIO    H1947207   5.088   7.992   1.153
   93DIO    H2047208   5.248   7.970   1.082
   94DIO     F147209   8.012   5.046   2.427
   94DIO     C147210   8.089   5.002   2.326
   94DIO     C247211   8.233   5.016   2.336
   94DIO     C347212   8.322   4.972   2.226
   94DIO     C447213   8.257   4.911   2.107
   94DIO     C547214   8.112   4.899   2.100
   94DIO     F247215   8.057   4.840   1.992
   94DIO     C647216   8.029   4.944   2.208
   94DIO     F347217   7.895   4.932   2.200
   94DIO     C747218   8.469   4.986   2.233
   94DIO     C847219   8.546   5.048   2.124
   94DIO     C947220   8.690   5.062   2.131
   94DIO    C1047221   8.763   5.004   2.243
   94DIO    C1147222   8.690   4.949   2.356
   94DIO    C1247223   8.546   4.938   2.350
   94DIO     F447224   8.481   4.882   2.453
   94DIO     O147225   8.895   5.042   2.255
   94DIO    C1347226   8.990   4.953   2.306
   94DIO     O247227   8.991   4.828   2.320
   94DIO    C1447228   9.119   5.017   2.333
   94DIO    C1547229   9.185   5.104   2.233
   94DIO     F547230   9.122   5.134   2.117
   94DIO    C1647231   9.316   5.163   2.255
   94DIO    C1747232   9.392   5.132   2.376
   94DIO    C1847233   9.323   5.061   2.483
   94DIO    C1947234   9.191   5.003   2.461
   94DIO     F647235   9.129   4.951   2.569
   94DIO    C2047236   9.532   5.183   2.395
   94DIO     O347237   9.602   5.208   2.272
   94DIO    C2147238   9.646   5.089   2.209
   94DIO    C2247239   9.735   5.006   2.302
   94DIO    C2347240   9.654   4.981   2.429
   94DIO     O447241   9.610   5.104   2.486
   94DIO    C2447242   9.867   5.077   2.337
   94DIO    C2547243   9.958   5.112   2.218
   94DIO    C2647244   9.997   4.992   2.133
   94DIO     H147245   8.276   5.059   2.425
   94DIO     H247246   8.317   4.868   2.028
   94DIO     H347247   8.494   5.090   2.038
   94DIO     H447248   8.745   5.115   2.055
   94DIO     H547249   8.745   4.912   2.442
   94DIO     H647250   9.354   5.232   2.181
   94DIO     H747251   9.366   5.054   2.582
   94DIO     H847252   9.523   5.281   2.443
   94DIO     H947253   9.559   5.030   2.177
   94DIO    H1047254   9.699   5.117   2.117
   94DIO    H1147255   9.757   4.910   2.255
   94DIO    H1247256   9.715   4.930   2.504
   94DIO    H1347257   9.568   4.917   2.408
   94DIO    H1447258   9.848   5.170   2.392
   94DIO    H1547259   9.924   5.013   2.405
   94DIO    H1647260   9.911   5.188   2.155
   94DIO    H1747261  10.050   5.158   2.257
   94DIO    H1847262  10.040   4.912   2.194
   94DIO    H1947263   9.910   4.951   2.080
   94DIO    H2047264  10.070   5.021   2.058
   95DIO     F147265   7.383   4.102   1.000
   95DIO     C147266   7.461   4.205   1.038
   95DIO     C247267   7.605   4.189   1.041
   95DIO     C347268   7.693   4.299   1.084
   95DIO     C447269   7.628   4.427   1.121
   95DIO     C547270   7.484   4.441   1.117
   95DIO     F247271   7.428   4.560   1.148
   95DIO     C647272   7.400   4.331   1.075
   95DIO     F347273   7.266   4.345   1.073
   95DIO     C747274   7.840   4.284   1.089
   95DIO     C847275   7.917   4.321   1.210
   95DIO     C947276   8.062   4.307   1.214
   95DIO    C1047277   8.134   4.264   1.096
   95DIO    C1147278   8.062   4.220   0.978
   95DIO    C1247279   7.918   4.232   0.975
   95DIO     F447280   7.853   4.195   0.863
   95DIO     O147281   8.266   4.230   1.115
   95DIO    C1347282   8.361   4.254   1.015
   95DIO     O247283   8.362   4.329   0.915
   95DIO    C1447284   8.490   4.190   1.044
   95DIO    C1547285   8.556   4.204   1.175
   95DIO     F547286   8.494   4.268   1.276
   95DIO    C1647287   8.687   4.147   1.203
   95DIO    C1747288   8.763   4.080   1.098
   95DIO    C1847289   8.694   4.051   0.973
   95DIO    C1947290   8.563   4.106   0.946
   95DIO     F647291   8.500   4.063   0.834
   95DIO    C2047292   8.904   4.031   1.122
   95DIO     O347293   8.973   4.103   1.224
   95DIO    C2147294   9.017   4.232   1.181
   95DIO    C2247295   9.106   4.220   1.057
   95DIO    C2347296   9.025   4.145   0.952
   95DIO     O447297   8.981   4.019   1.002
   95DIO    C2447298   9.239   4.146   1.085
   95DIO    C2547299   9.329   4.209   1.191
   95DIO    C2647300   9.368   4.353   1.162
   95DIO     H147301   7.647   4.094   1.011
   95DIO     H247302   7.689   4.514   1.144
   95DIO     H347303   7.865   4.355   1.299
   95DIO     H447304   8.117   4.326   1.305
   95DIO     H547305   8.116   4.183   0.892
   95DIO     H647306   8.725   4.153   1.304
   95DIO     H747307   8.737   3.983   0.900
   95DIO     H847308   8.894   3.929   1.161
   95DIO     H947309   8.930   4.295   1.160
   95DIO    H1047310   9.070   4.279   1.264
   95DIO    H1147311   9.128   4.320   1.019
   95DIO    H1247312   9.086   4.125   0.863
   95DIO    H1347313   8.939   4.204   0.919
   95DIO    H1447314   9.219   4.042   1.115
   95DIO    H1547315   9.295   4.140   0.991
   95DIO    H1647316   9.282   4.203   1.290
   95DIO    H1747317   9.421   4.149   1.198
   95DIO    H1847318   9.412   4.363   1.062
   95DIO    H1947319   9.281   4.420   1.168
   95DIO    H2047320   9.441   4.388   1.235
   96DIO     F147321   3.470   7.263   0.261
   96DIO     C147322   3.548   7.368   0.226
   96DIO     C247323   3.692   7.357   0.238
   96DIO     C347324   3.781   7.469   0.203
   96DIO     C447325   3.715   7.592   0.152
   96DIO     C547326   3.571   7.601   0.140
   96DIO     F247327   3.515   7.712   0.089
   96DIO     C647328   3.487   7.489   0.176
   96DIO     F347329   3.353   7.498   0.165
   96DIO     C747330   3.927   7.461   0.216
   96DIO     C847331   4.004   7.565   0.287
   96DIO     C947332   4.149   7.557   0.299
   96DIO    C1047333   4.221   7.450   0.234
   96DIO    C1147334   4.149   7.341   0.170
   96DIO    C1247335   4.005   7.348   0.160
   96DIO     F447336   3.940   7.249   0.096
   96DIO     O147337   4.354   7.435   0.270
   96DIO    C1347338   4.448   7.391   0.178
   96DIO     O247339   4.449   7.387   0.052
   96DIO    C1447340   4.577   7.359   0.240
   96DIO    C1547341   4.644   7.452   0.334
   96DIO     F547342   4.581   7.565   0.372
   96DIO    C1647343   4.774   7.426   0.391
   96DIO    C1747344   4.850   7.308   0.351
   96DIO    C1847345   4.781   7.206   0.272
   96DIO    C1947346   4.650   7.232   0.216
   96DIO     F647347   4.587   7.129   0.156
   96DIO    C2047348   4.991   7.285   0.401
   96DIO     O347349   5.061   7.405   0.435
   96DIO    C2147350   5.104   7.478   0.320
   96DIO    C2247351   5.193   7.391   0.232
   96DIO    C2347352   5.112   7.266   0.197
   96DIO     O447353   5.068   7.200   0.315
   96DIO    C2447354   5.326   7.351   0.299
   96DIO    C2547355   5.417   7.467   0.343
   96DIO    C2647356   5.455   7.560   0.229
   96DIO     H147357   3.734   7.264   0.275
   96DIO     H247358   3.776   7.674   0.115
   96DIO     H347359   3.953   7.648   0.334
   96DIO     H447360   4.204   7.629   0.358
   96DIO     H547361   4.203   7.259   0.126
   96DIO     H647362   4.812   7.494   0.466
   96DIO     H747363   4.824   7.108   0.258
   96DIO     H847364   4.981   7.229   0.495
   96DIO     H947365   5.018   7.514   0.264
   96DIO    H1047366   5.157   7.567   0.355
   96DIO    H1147367   5.216   7.445   0.139
   96DIO    H1247368   5.173   7.195   0.140
   96DIO    H1347369   5.026   7.291   0.134
   96DIO    H1447370   5.306   7.289   0.388
   96DIO    H1547371   5.382   7.287   0.230
   96DIO    H1647372   5.369   7.524   0.423
   96DIO    H1747373   5.508   7.424   0.386
   96DIO    H1847374   5.499   7.505   0.146
   96DIO    H1947375   5.368   7.616   0.193
   96DIO    H2047376   5.529   7.633   0.265
   97DIO     F147377   6.282   1.967   6.922
   97DIO     C147378   6.360   1.954   7.031
   97DIO     C247379   6.504   1.947   7.016
   97DIO     C347380   6.592   1.931   7.133
   97DIO     C447381   6.527   1.924   7.266
   97DIO     C547382   6.383   1.931   7.279
   97DIO     F247383   6.327   1.929   7.401
   97DIO     C647384   6.299   1.946   7.162
   97DIO     F347385   6.165   1.952   7.175
   97DIO     C747386   6.739   1.922   7.119
   97DIO     C847387   6.816   1.813   7.183
   97DIO     C947388   6.961   1.806   7.170
   97DIO    C1047389   7.033   1.911   7.102
   97DIO    C1147390   6.961   2.015   7.032
   97DIO    C1247391   6.817   2.021   7.042
   97DIO     F447392   6.752   2.122   6.981
   97DIO     O147393   7.165   1.885   7.073
   97DIO    C1347394   7.260   1.987   7.073
   97DIO     O247395   7.261   2.103   7.124
   97DIO    C1447396   7.389   1.945   7.018
   97DIO    C1547397   7.455   1.820   7.061
   97DIO     F547398   7.393   1.736   7.147
   97DIO    C1647399   7.586   1.780   7.013
   97DIO    C1747400   7.662   1.867   6.923
   97DIO    C1847401   7.593   1.982   6.866
   97DIO    C1947402   7.462   2.021   6.914
   97DIO     F647403   7.399   2.120   6.846
   97DIO    C2047404   7.803   1.832   6.881
   97DIO     O347405   7.872   1.749   6.975
   97DIO    C2147406   7.916   1.821   7.090
   97DIO    C2247407   8.005   1.938   7.050
   97DIO    C2347408   7.924   2.024   6.952
   97DIO     O447409   7.880   1.946   6.842
   97DIO    C2447410   8.138   1.894   6.984
   97DIO    C2547411   8.228   1.805   7.070
   97DIO    C2647412   8.267   1.867   7.204
   97DIO     H147413   6.546   1.954   6.916
   97DIO     H247414   6.588   1.922   7.356
   97DIO     H347415   6.764   1.735   7.237
   97DIO     H447416   7.016   1.721   7.210
   97DIO     H547417   7.015   2.090   6.976
   97DIO     H647418   7.624   1.683   7.042
   97DIO     H747419   7.636   2.037   6.783
   97DIO     H847420   7.793   1.771   6.790
   97DIO     H947421   7.829   1.856   7.147
   97DIO    H1047422   7.969   1.751   7.155
   97DIO    H1147423   8.027   1.999   7.139
   97DIO    H1247424   7.985   2.106   6.913
   97DIO    H1347425   7.838   2.070   7.002
   97DIO    H1447426   8.118   1.842   6.890
   97DIO    H1547427   8.194   1.985   6.957
   97DIO    H1647428   8.181   1.708   7.087
   97DIO    H1747429   8.320   1.785   7.013
   97DIO    H1847430   8.311   1.967   7.190
   97DIO    H1947431   8.180   1.876   7.270
   97DIO    H2047432   8.340   1.804   7.254
   98DIO     F147433   3.396   5.715   7.262
   98DIO     C147434   3.473   5.627   7.327
   98DIO     C247435   3.618   5.634   7.312
   98DIO     C347436   3.706   5.537   7.380
   98DIO     C447437   3.641   5.436   7.467
   98DIO     C547438   3.497   5.432   7.481
   98DIO     F247439   3.441   5.341   7.564
   98DIO     C647440   3.413   5.527   7.412
   98DIO     F347441   3.279   5.521   7.425
   98DIO     C747442   3.853   5.542   7.365
   98DIO     C847443   3.930   5.420   7.330
   98DIO     C947444   4.075   5.424   7.315
   98DIO    C1047445   4.147   5.546   7.345
   98DIO    C1147446   4.075   5.669   7.372
   98DIO    C1247447   3.931   5.666   7.384
   98DIO     F447448   3.866   5.780   7.414
   98DIO     O147449   4.279   5.550   7.306
   98DIO    C1347450   4.374   5.620   7.380
   98DIO     O247451   4.375   5.663   7.499
   98DIO    C1447452   4.503   5.631   7.311
   98DIO    C1547453   4.569   5.513   7.251
   98DIO     F547454   4.507   5.394   7.249
   98DIO    C1647455   4.700   5.521   7.188
   98DIO    C1747456   4.776   5.645   7.190
   98DIO    C1847457   4.707   5.766   7.234
   98DIO    C1947458   4.575   5.759   7.295
   98DIO     F647459   4.513   5.876   7.320
   98DIO    C2047460   4.917   5.652   7.135
   98DIO     O347461   4.986   5.527   7.140
   98DIO    C2147462   5.030   5.493   7.271
   98DIO    C2247463   5.119   5.603   7.329
   98DIO    C2347464   5.038   5.733   7.323
   98DIO     O447465   4.994   5.759   7.191
   98DIO    C2447466   5.252   5.620   7.252
   98DIO    C2547467   5.342   5.497   7.246
   98DIO    C2647468   5.381   5.443   7.383
   98DIO     H147469   3.660   5.711   7.248
   98DIO     H247470   3.701   5.370   7.527
   98DIO     H347471   3.878   5.327   7.310
   98DIO     H447472   4.130   5.337   7.282
   98DIO     H547473   4.129   5.761   7.388
   98DIO     H647474   4.738   5.433   7.138
   98DIO     H747475   4.750   5.864   7.217
   98DIO     H847476   4.907   5.676   7.029
   98DIO     H947477   4.943   5.476   7.336
   98DIO    H1047478   5.083   5.398   7.265
   98DIO    H1147479   5.141   5.580   7.434
   98DIO    H1247480   5.099   5.818   7.356
   98DIO    H1347481   4.952   5.728   7.391
   98DIO    H1447482   5.232   5.652   7.149
   98DIO    H1547483   5.308   5.702   7.299
   98DIO    H1647484   5.295   5.418   7.187
   98DIO    H1747485   5.434   5.524   7.193
   98DIO    H1847486   5.425   5.521   7.446
   98DIO    H1947487   5.294   5.401   7.435
   98DIO    H2047488   5.454   5.362   7.372
   99DIO     F147489   6.765   7.276   7.959
   99DIO     C147490   6.843   7.332   7.864
   99DIO     C247491   6.987   7.332   7.881
   99DIO     C347492   7.076   7.394   7.780
   99DIO     C447493   7.010   7.453   7.661
   99DIO     C547494   6.866   7.451   7.646
   99DIO     F247495   6.811   7.502   7.534
   99DIO     C647496   6.782   7.391   7.747
   99DIO     F347497   6.649   7.391   7.732
   99DIO     C747498   7.222   7.396   7.796
   99DIO     C847499   7.299   7.521   7.780
   99DIO     C947500   7.444   7.523   7.795
   99DIO    C1047501   7.517   7.399   7.816
   99DIO    C1147502   7.444   7.275   7.839
   99DIO    C1247503   7.300   7.274   7.827
   99DIO     F447504   7.235   7.157   7.843
   99DIO     O147505   7.649   7.411   7.853
   99DIO    C1347506   7.743   7.318   7.812
   99DIO     O247507   7.744   7.232   7.720
   99DIO    C1447508   7.872   7.334   7.880
   99DIO    C1547509   7.939   7.466   7.890
   99DIO     F547510   7.876   7.577   7.845
   99DIO    C1647511   8.070   7.484   7.950
   99DIO    C1747512   8.145   7.369   7.997
   99DIO    C1847513   8.077   7.240   8.004
   99DIO    C1947514   7.945   7.223   7.945
   99DIO     F647515   7.882   7.106   7.968
   99DIO    C2047516   8.286   7.384   8.050
   99DIO     O347517   8.356   7.497   7.997
   99DIO    C2147518   8.399   7.477   7.863
   99DIO    C2247519   8.488   7.353   7.853
   99DIO    C2347520   8.408   7.236   7.908
   99DIO     O447521   8.363   7.263   8.041
   99DIO    C2447522   8.621   7.367   7.930
   99DIO    C2547523   8.712   7.483   7.887
   99DIO    C2647524   8.750   7.480   7.740
   99DIO     H147525   7.030   7.285   7.969
   99DIO     H247526   7.071   7.491   7.579
   99DIO     H347527   7.248   7.614   7.762
   99DIO     H447528   7.499   7.616   7.792
   99DIO     H547529   7.499   7.184   7.860
   99DIO     H647530   8.108   7.585   7.962
   99DIO     H747531   8.119   7.157   8.058
   99DIO     H847532   8.276   7.404   8.158
   99DIO     H947533   8.313   7.467   7.797
   99DIO    H1047534   8.452   7.567   7.831
   99DIO    H1147535   8.511   7.333   7.747
   99DIO    H1247536   8.469   7.145   7.912
   99DIO    H1347537   8.321   7.214   7.844
   99DIO    H1447538   8.601   7.378   8.038
   99DIO    H1547539   8.678   7.274   7.919
   99DIO    H1647540   8.664   7.579   7.911
   99DIO    H1747541   8.804   7.479   7.947
   99DIO    H1847542   8.794   7.383   7.713
   99DIO    H1947543   8.664   7.498   7.676
   99DIO    H2047544   8.824   7.558   7.719
  100DIO     F147545   2.362   3.117   6.295
  100DIO     C147546   2.440   3.113   6.405
  100DIO     C247547   2.584   3.105   6.390
  100DIO     C347548   2.673   3.098   6.508
  100DIO     C447549   2.607   3.102   6.641
  100DIO     C547550   2.463   3.110   6.653
  100DIO     F247551   2.408   3.118   6.776
  100DIO     C647552   2.379   3.116   6.536
  100DIO     F347553   2.245   3.123   6.548
  100DIO     C747554   2.819   3.089   6.495
  100DIO     C847555   2.896   2.985   6.568
  100DIO     C947556   3.041   2.977   6.556
  100DIO    C1047557   3.114   3.076   6.479
  100DIO    C1147558   3.041   3.174   6.400
  100DIO    C1247559   2.897   3.181   6.410
  100DIO     F447560   2.832   3.276   6.340
  100DIO     O147561   3.246   3.047   6.452
  100DIO    C1347562   3.340   3.149   6.444
  100DIO     O247563   3.341   3.269   6.484
  100DIO    C1447564   3.469   3.103   6.392
  100DIO    C1547565   3.536   2.982   6.446
  100DIO     F547566   3.473   2.905   6.538
  100DIO    C1647567   3.666   2.938   6.401
  100DIO    C1747568   3.742   3.017   6.304
  100DIO    C1847569   3.673   3.127   6.238
  100DIO    C1947570   3.542   3.169   6.282
  100DIO     F647571   3.479   3.262   6.206
  100DIO    C2047572   3.883   2.978   6.265
  100DIO     O347573   3.953   2.904   6.366
  100DIO    C2147574   3.996   2.985   6.474
  100DIO    C2247575   4.085   3.099   6.425
  100DIO    C2347576   4.004   3.176   6.320
  100DIO     O447577   3.960   3.089   6.216
  100DIO    C2447578   4.218   3.050   6.363
  100DIO    C2547579   4.309   2.968   6.456
  100DIO    C2647580   4.347   3.041   6.584
  100DIO     H147581   2.627   3.103   6.290
  100DIO     H247582   2.668   3.108   6.731
  100DIO     H347583   2.845   2.912   6.628
  100DIO     H447584   3.096   2.896   6.602
  100DIO     H547585   3.095   3.244   6.338
  100DIO     H647586   3.705   2.843   6.438
  100DIO     H747587   3.716   3.174   6.150
  100DIO     H847588   3.873   2.910   6.180
  100DIO     H947589   3.910   3.025   6.528
  100DIO    H1047590   4.049   2.921   6.545
  100DIO    H1147591   4.108   3.166   6.508
  100DIO    H1247592   4.066   3.254   6.274
  100DIO    H1347593   3.918   3.226   6.366
  100DIO    H1447594   4.198   2.989   6.273
  100DIO    H1547595   4.274   3.137   6.328
  100DIO    H1647596   4.261   2.872   6.481
  100DIO    H1747597   4.400   2.943   6.401
  100DIO    H1847598   4.391   3.139   6.562
  100DIO    H1947599   4.261   3.055   6.649
  100DIO    H2047600   4.421   2.982   6.639
  101DIO     F147601   1.700   0.533   6.678
  101DIO     C147602   1.777   0.426   6.704
  101DIO     C247603   1.921   0.438   6.692
  101DIO     C347604   2.010   0.322   6.717
  101DIO     C447605   1.945   0.195   6.757
  101DIO     C547606   1.800   0.186   6.768
  101DIO     F247607   1.745   0.070   6.808
  101DIO     C647608   1.717   0.300   6.742
  101DIO     F347609   1.583   0.290   6.752
  101DIO     C747610   2.156   0.332   6.705
  101DIO     C847611   2.234   0.234   6.625
  101DIO     C947612   2.378   0.244   6.613
  101DIO    C1047613   2.451   0.344   6.688
  101DIO    C1147614   2.378   0.447   6.761
  101DIO    C1247615   2.234   0.439   6.771
  101DIO     F447616   2.169   0.531   6.844
  101DIO     O147617   2.583   0.363   6.653
  101DIO    C1347618   2.678   0.398   6.750
  101DIO     O247619   2.678   0.391   6.875
  101DIO    C1447620   2.807   0.435   6.691
  101DIO    C1547621   2.873   0.351   6.588
  101DIO     F547622   2.810   0.242   6.540
  101DIO    C1647623   3.004   0.383   6.534
  101DIO    C1747624   3.080   0.497   6.585
  101DIO    C1847625   3.011   0.590   6.673
  101DIO    C1947626   2.879   0.559   6.726
  101DIO     F647627   2.817   0.657   6.795
  101DIO    C2047628   3.220   0.524   6.537
  101DIO     O347629   3.290   0.408   6.492
  101DIO    C2147630   3.334   0.325   6.599
  101DIO    C2247631   3.423   0.403   6.696
  101DIO    C2347632   3.342   0.524   6.742
  101DIO     O447633   3.298   0.601   6.630
  101DIO    C2447634   3.555   0.449   6.632
  101DIO    C2547635   3.646   0.338   6.578
  101DIO    C2647636   3.684   0.234   6.682
  101DIO     H147637   1.964   0.534   6.664
  101DIO     H247638   2.005   0.110   6.786
  101DIO     H347639   2.182   0.157   6.569
  101DIO     H447640   2.433   0.177   6.548
  101DIO     H547641   2.433   0.525   6.813
  101DIO     H647642   3.042   0.322   6.453
  101DIO     H747643   3.054   0.687   6.696
  101DIO     H847644   3.211   0.588   6.449
  101DIO     H947645   3.247   0.284   6.652
  101DIO    H1047646   3.386   0.239   6.556
  101DIO    H1147647   3.445   0.340   6.783
  101DIO    H1247648   3.403   0.589   6.805
  101DIO    H1347649   3.256   0.493   6.802
  101DIO    H1447650   3.535   0.519   6.550
  101DIO    H1547651   3.612   0.506   6.707
  101DIO    H1647652   3.599   0.288   6.493
  101DIO    H1747653   3.738   0.384   6.539
  101DIO    H1847654   3.728   0.281   6.771
  101DIO    H1947655   3.598   0.175   6.714
  101DIO    H2047656   3.758   0.165   6.640
  102DIO     F147657   3.001   4.142   0.765
  102DIO     C147658   3.078   4.203   0.673
  102DIO     C247659   3.222   4.202   0.690
  102DIO     C347660   3.311   4.270   0.593
  102DIO     C447661   3.246   4.335   0.477
  102DIO     C547662   3.101   4.335   0.462
  102DIO     F247663   3.046   4.392   0.354
  102DIO     C647664   3.018   4.268   0.560
  102DIO     F347665   2.884   4.270   0.545
  102DIO     C747666   3.458   4.271   0.609
  102DIO     C847667   3.535   4.397   0.600
  102DIO     C947668   3.679   4.398   0.615
  102DIO    C1047669   3.752   4.273   0.629
  102DIO    C1147670   3.679   4.148   0.645
  102DIO    C1247671   3.535   4.148   0.633
  102DIO     F447672   3.470   4.030   0.643
  102DIO     O147673   3.884   4.283   0.667
  102DIO    C1347674   3.979   4.192   0.621
  102DIO     O247675   3.980   4.112   0.524
  102DIO    C1447676   4.108   4.205   0.689
  102DIO    C1547677   4.174   4.336   0.707
  102DIO     F547678   4.111   4.449   0.668
  102DIO    C1647679   4.305   4.350   0.768
  102DIO    C1747680   4.381   4.232   0.809
  102DIO    C1847681   4.312   4.104   0.808
  102DIO    C1947682   4.180   4.090   0.748
  102DIO     F647683   4.118   3.972   0.765
  102DIO    C2047684   4.521   4.245   0.862
  102DIO     O347685   4.591   4.361   0.815
  102DIO    C2147686   4.635   4.348   0.681
  102DIO    C2247687   4.724   4.225   0.663
  102DIO    C2347688   4.643   4.105   0.712
  102DIO     O447689   4.599   4.125   0.846
  102DIO    C2447690   4.856   4.235   0.742
  102DIO    C2547691   4.947   4.353   0.705
  102DIO    C2647692   4.986   4.358   0.558
  102DIO     H147693   3.265   4.151   0.776
  102DIO     H247694   3.306   4.378   0.398
  102DIO     H347695   3.483   4.491   0.588
  102DIO     H447696   3.734   4.491   0.618
  102DIO     H547697   3.734   4.056   0.661
  102DIO     H647698   4.343   4.450   0.786
  102DIO     H747699   4.355   4.018   0.858
  102DIO     H847700   4.512   4.259   0.971
  102DIO     H947701   4.548   4.342   0.614
  102DIO    H1047702   4.688   4.440   0.654
  102DIO    H1147703   4.746   4.211   0.557
  102DIO    H1247704   4.704   4.014   0.711
  102DIO    H1347705   4.557   4.087   0.647
  102DIO    H1447706   4.837   4.240   0.849
  102DIO    H1547707   4.913   4.142   0.725
  102DIO    H1647708   4.900   4.448   0.734
  102DIO    H1747709   5.039   4.346   0.765
  102DIO    H1847710   5.029   4.263   0.526
  102DIO    H1947711   4.899   4.379   0.495
  102DIO    H2047712   5.059   4.437   0.541
  103DIO     F147713   4.223   5.893   8.340
  103DIO     C147714   4.301   5.999   8.366
  103DIO     C247715   4.445   5.983   8.371
  103DIO     C347716   4.534   6.098   8.401
  103DIO     C447717   4.468   6.229   8.424
  103DIO     C547718   4.324   6.242   8.418
  103DIO     F247719   4.268   6.364   8.435
  103DIO     C647720   4.240   6.128   8.389
  103DIO     F347721   4.106   6.142   8.385
  103DIO     C747722   4.680   6.083   8.408
  103DIO     C847723   4.757   6.134   8.523
  103DIO     C947724   4.902   6.120   8.530
  103DIO    C1047725   4.974   6.064   8.417
  103DIO    C1147726   4.902   6.007   8.305
  103DIO    C1247727   4.758   6.018   8.300
  103DIO     F447728   4.693   5.969   8.193
  103DIO     O147729   5.107   6.032   8.439
  103DIO    C1347730   5.201   6.045   8.338
  103DIO     O247731   5.202   6.109   8.229
  103DIO    C1447732   5.330   5.985   8.373
  103DIO    C1547733   5.397   6.013   8.502
  103DIO     F547734   5.334   6.088   8.596
  103DIO    C1647735   5.527   5.960   8.537
  103DIO    C1747736   5.603   5.882   8.440
  103DIO    C1847737   5.534   5.839   8.319
  103DIO    C1947738   5.403   5.890   8.285
  103DIO     F647739   5.340   5.835   8.179
  103DIO    C2047740   5.744   5.836   8.469
  103DIO     O347741   5.814   5.919   8.562
  103DIO    C2147742   5.857   6.042   8.505
  103DIO    C2247743   5.946   6.016   8.383
  103DIO    C2347744   5.865   5.929   8.287
  103DIO     O447745   5.821   5.810   8.351
  103DIO    C2447746   6.079   5.946   8.419
  103DIO    C2547747   6.170   6.020   8.518
  103DIO    C2647748   6.208   6.160   8.472
  103DIO     H147749   4.487   5.885   8.352
  103DIO     H247750   4.529   6.318   8.436
  103DIO     H347751   4.706   6.178   8.608
  103DIO     H447752   4.957   6.149   8.618
  103DIO     H547753   4.956   5.961   8.224
  103DIO     H647754   5.565   5.978   8.636
  103DIO     H747755   5.577   5.763   8.254
  103DIO     H847756   5.734   5.738   8.519
  103DIO     H947757   5.771   6.102   8.477
  103DIO    H1047758   5.910   6.098   8.582
  103DIO    H1147759   5.969   6.111   8.334
  103DIO    H1247760   5.926   5.900   8.201
  103DIO    H1347761   5.779   5.984   8.247
  103DIO    H1447762   6.059   5.846   8.461
  103DIO    H1547763   6.135   5.929   8.327
  103DIO    H1647764   6.122   6.026   8.616
  103DIO    H1747765   6.261   5.961   8.531
  103DIO    H1847766   6.252   6.159   8.372
  103DIO    H1947767   6.121   6.227   8.471
  103DIO    H2047768   6.282   6.203   8.541
  104DIO     F147769   2.806   5.716   0.213
  104DIO     C147770   2.884   5.823   0.240
  104DIO     C247771   3.028   5.807   0.244
  104DIO     C347772   3.117   5.921   0.276
  104DIO     C447773   3.051   6.052   0.299
  104DIO     C547774   2.907   6.065   0.294
  104DIO     F247775   2.851   6.187   0.312
  104DIO     C647776   2.823   5.952   0.264
  104DIO     F347777   2.689   5.966   0.260
  104DIO     C747778   3.263   5.906   0.282
  104DIO     C847779   3.340   5.956   0.398
  104DIO     C947780   3.485   5.942   0.405
  104DIO    C1047781   3.557   5.888   0.291
  104DIO    C1147782   3.485   5.831   0.179
  104DIO    C1247783   3.341   5.843   0.174
  104DIO     F447784   3.276   5.794   0.066
  104DIO     O147785   3.690   5.855   0.313
  104DIO    C1347786   3.784   5.869   0.212
  104DIO     O247787   3.785   5.934   0.104
  104DIO    C1447788   3.913   5.808   0.247
  104DIO    C1547789   3.979   5.836   0.376
  104DIO     F547790   3.917   5.910   0.470
  104DIO    C1647791   4.110   5.782   0.410
  104DIO    C1747792   4.186   5.705   0.312
  104DIO    C1847793   4.117   5.663   0.191
  104DIO    C1947794   3.986   5.715   0.158
  104DIO     F647795   3.923   5.660   0.052
  104DIO    C2047796   4.327   5.658   0.342
  104DIO     O347797   4.396   5.741   0.436
  104DIO    C2147798   4.440   5.864   0.379
  104DIO    C2247799   4.529   5.840   0.257
  104DIO    C2347800   4.448   5.753   0.160
  104DIO     O447801   4.404   5.634   0.224
  104DIO    C2447802   4.662   5.769   0.293
  104DIO    C2547803   4.752   5.842   0.392
  104DIO    C2647804   4.791   5.983   0.348
  104DIO     H147805   3.070   5.709   0.225
  104DIO     H247806   3.112   6.141   0.313
  104DIO     H347807   3.289   5.999   0.483
  104DIO     H447808   3.540   5.971   0.493
  104DIO     H547809   3.539   5.786   0.097
  104DIO     H647810   4.148   5.799   0.510
  104DIO     H747811   4.160   5.588   0.126
  104DIO     H847812   4.317   5.561   0.391
  104DIO     H947813   4.353   5.925   0.352
  104DIO    H1047814   4.493   5.920   0.457
  104DIO    H1147815   4.552   5.935   0.209
  104DIO    H1247816   4.509   5.725   0.074
  104DIO    H1347817   4.362   5.809   0.121
  104DIO    H1447818   4.642   5.669   0.333
  104DIO    H1547819   4.718   5.753   0.200
  104DIO    H1647820   4.705   5.847   0.491
  104DIO    H1747821   4.844   5.784   0.405
  104DIO    H1847822   4.835   5.982   0.247
  104DIO    H1947823   4.704   6.050   0.347
  104DIO    H2047824   4.865   6.025   0.417
  105DIO     F147825   6.361   6.345   2.789
  105DIO     C147826   6.438   6.371   2.896
  105DIO     C247827   6.582   6.359   2.884
  105DIO     C347828   6.671   6.385   2.999
  105DIO     C447829   6.606   6.425   3.126
  105DIO     C547830   6.461   6.436   3.136
  105DIO     F247831   6.406   6.476   3.252
  105DIO     C647832   6.378   6.410   3.021
  105DIO     F347833   6.244   6.419   3.032
  105DIO     C747834   6.818   6.372   2.989
  105DIO     C847835   6.895   6.292   3.087
  105DIO     C947836   7.039   6.280   3.078
  105DIO    C1047837   7.112   6.355   2.977
  105DIO    C1147838   7.040   6.429   2.875
  105DIO    C1247839   6.895   6.438   2.883
  105DIO     F447840   6.831   6.511   2.790
  105DIO     O147841   7.244   6.321   2.959
  105DIO    C1347842   7.339   6.417   2.924
  105DIO     O247843   7.340   6.542   2.930
  105DIO    C1447844   7.468   6.358   2.886
  105DIO    C1547845   7.534   6.256   2.971
  105DIO     F547846   7.472   6.207   3.080
  105DIO    C1647847   7.665   6.201   2.939
  105DIO    C1747848   7.741   6.252   2.825
  105DIO    C1847849   7.672   6.339   2.731
  105DIO    C1947850   7.540   6.393   2.762
  105DIO     F647851   7.478   6.462   2.664
  105DIO    C2047852   7.881   6.204   2.798
  105DIO     O347853   7.951   6.159   2.914
  105DIO    C2147854   7.995   6.267   2.997
  105DIO    C2247855   8.084   6.363   2.919
  105DIO    C2347856   8.003   6.409   2.797
  105DIO     O447857   7.959   6.297   2.721
  105DIO    C2447858   8.217   6.299   2.873
  105DIO    C2547859   8.307   6.245   2.984
  105DIO    C2647860   8.346   6.350   3.088
  105DIO     H147861   6.625   6.331   2.788
  105DIO     H247862   6.666   6.454   3.211
  105DIO     H347863   6.843   6.237   3.165
  105DIO     H447864   7.095   6.215   3.145
  105DIO     H547865   7.094   6.480   2.796
  105DIO     H647866   7.703   6.120   3.000
  105DIO     H747867   7.715   6.362   2.634
  105DIO     H847868   7.872   6.115   2.734
  105DIO     H947869   7.908   6.319   3.038
  105DIO    H1047870   8.048   6.224   3.082
  105DIO    H1147871   8.106   6.450   2.981
  105DIO    H1247872   8.064   6.472   2.732
  105DIO    H1347873   7.917   6.469   2.828
  105DIO    H1447874   8.197   6.217   2.803
  105DIO    H1547875   8.273   6.374   2.816
  105DIO    H1647876   8.260   6.160   3.034
  105DIO    H1747877   8.399   6.207   2.938
  105DIO    H1847878   8.390   6.438   3.040
  105DIO    H1947879   8.259   6.381   3.147
  105DIO    H2047880   8.419   6.308   3.157
  106DIO     F147881   8.013   3.318   5.989
  106DIO     C147882   8.091   3.326   6.099
  106DIO     C247883   8.235   3.316   6.085
  106DIO     C347884   8.324   3.322   6.203
  106DIO     C447885   8.258   3.340   6.335
  106DIO     C547886   8.114   3.349   6.346
  106DIO     F247887   8.058   3.370   6.467
  106DIO     C647888   8.030   3.343   6.229
  106DIO     F347889   7.896   3.350   6.241
  106DIO     C747890   8.470   3.311   6.191
  106DIO     C847891   8.547   3.216   6.275
  106DIO     C947892   8.692   3.206   6.263
  106DIO    C1047893   8.764   3.297   6.176
  106DIO    C1147894   8.692   3.386   6.088
  106DIO    C1247895   8.548   3.394   6.097
  106DIO     F447896   8.483   3.482   6.018
  106DIO     O147897   8.897   3.266   6.153
  106DIO    C1347898   8.991   3.366   6.134
  106DIO     O247899   8.992   3.489   6.162
  106DIO    C1447900   9.120   3.315   6.087
  106DIO    C1547901   9.187   3.200   6.153
  106DIO     F547902   9.124   3.133   6.253
  106DIO    C1647903   9.317   3.151   6.113
  106DIO    C1747904   9.393   3.220   6.009
  106DIO    C1847905   9.324   3.323   5.931
  106DIO    C1947906   9.193   3.370   5.971
  106DIO     F647907   9.130   3.454   5.886
  106DIO    C2047908   9.534   3.178   5.974
  106DIO     O347909   9.604   3.114   6.081
  106DIO    C2147910   9.647   3.206   6.181
  106DIO    C2247911   9.736   3.314   6.120
  106DIO    C2347912   9.655   3.380   6.008
  106DIO     O447913   9.611   3.283   5.914
  106DIO    C2447914   9.869   3.259   6.064
  106DIO    C2547915   9.960   3.187   6.165
  106DIO    C2647916   9.998   3.273   6.284
  106DIO     H147917   8.277   3.305   5.986
  106DIO     H247918   8.319   3.354   6.424
  106DIO     H347919   8.496   3.149   6.342
  106DIO     H447920   8.747   3.131   6.318
  106DIO     H547921   8.746   3.450   6.019
  106DIO     H647922   9.355   3.061   6.160
  106DIO     H747923   9.367   3.361   5.840
  106DIO     H847924   9.524   3.101   5.896
  106DIO     H947925   9.561   3.251   6.231
  106DIO    H1047926   9.700   3.149   6.258
  106DIO    H1147927   9.759   3.390   6.196
  106DIO    H1247928   9.716   3.453   5.955
  106DIO    H1347929   9.569   3.434   6.049
  106DIO    H1447930   9.849   3.189   5.981
  106DIO    H1547931   9.925   3.342   6.021
  106DIO    H1647932   9.912   3.095   6.199
  106DIO    H1747933  10.051   3.157   6.113
  106DIO    H1847934  10.042   3.368   6.253
  106DIO    H1947935   9.911   3.294   6.348
  106DIO    H2047936  10.072   3.220   6.346
  107DIO     F147937   5.914   6.485   2.207
  107DIO     C147938   5.991   6.582   2.259
  107DIO     C247939   6.135   6.565   2.260
  107DIO     C347940   6.224   6.669   2.318
  107DIO     C447941   6.159   6.790   2.372
  107DIO     C547942   6.014   6.804   2.370
  107DIO     F247943   5.959   6.918   2.417
  107DIO     C647944   5.931   6.702   2.314
  107DIO     F347945   5.797   6.716   2.313
  107DIO     C747946   6.370   6.653   2.321
  107DIO     C847947   6.448   6.673   2.445
  107DIO     C947948   6.592   6.658   2.448
  107DIO    C1047949   6.665   6.633   2.325
  107DIO    C1147950   6.592   6.605   2.202
  107DIO    C1247951   6.448   6.617   2.200
  107DIO     F447952   6.383   6.596   2.084
  107DIO     O147953   6.797   6.596   2.338
  107DIO    C1347954   6.892   6.634   2.243
  107DIO     O247955   6.892   6.722   2.154
  107DIO    C1447956   7.021   6.567   2.263
  107DIO    C1547957   7.087   6.562   2.395
  107DIO     F547958   7.024   6.611   2.504
  107DIO    C1647959   7.218   6.502   2.415
  107DIO    C1747960   7.294   6.450   2.301
  107DIO    C1847961   7.225   6.438   2.173
  107DIO    C1947962   7.093   6.497   2.154
  107DIO     F647963   7.031   6.470   2.037
  107DIO    C2047964   7.434   6.398   2.318
  107DIO     O347965   7.504   6.455   2.429
  107DIO    C2147966   7.548   6.588   2.404
  107DIO    C2247967   7.637   6.594   2.280
  107DIO    C2347968   7.556   6.534   2.165
  107DIO     O447969   7.512   6.403   2.198
  107DIO    C2447970   7.769   6.517   2.297
  107DIO    C2547971   7.860   6.565   2.411
  107DIO    C2647972   7.898   6.711   2.402
  107DIO     H147973   6.178   6.475   2.217
  107DIO     H247974   6.219   6.873   2.407
  107DIO     H347975   6.396   6.694   2.538
  107DIO     H447976   6.647   6.665   2.541
  107DIO     H547977   6.647   6.580   2.112
  107DIO     H647978   7.256   6.494   2.516
  107DIO     H747979   7.268   6.381   2.092
  107DIO     H847980   7.425   6.291   2.342
  107DIO     H947981   7.461   6.654   2.392
  107DIO    H1047982   7.600   6.624   2.493
  107DIO    H1147983   7.659   6.699   2.257
  107DIO    H1247984   7.617   6.527   2.075
  107DIO    H1347985   7.470   6.597   2.141
  107DIO    H1447986   7.749   6.410   2.313
  107DIO    H1547987   7.826   6.524   2.204
  107DIO    H1647988   7.813   6.545   2.508
  107DIO    H1747989   7.952   6.504   2.410
  107DIO    H1847990   7.942   6.735   2.305
  107DIO    H1947991   7.812   6.777   2.418
  107DIO    H2047992   7.972   6.736   2.480
  108DIO     F147993   4.922   0.555   4.109
  108DIO     C147994   5.000   0.492   4.019
  108DIO     C247995   5.144   0.507   4.026
  108DIO     C347996   5.233   0.440   3.928
  108DIO     C447997   5.167   0.356   3.826
  108DIO     C547998   5.023   0.342   3.821
  108DIO     F247999   4.968   0.261   3.728
  108DIO     C648000   4.939   0.409   3.917
  108DIO     F348001   4.805   0.396   3.911
  108DIO     C748002   5.379   0.456   3.933
  108DIO     C848003   5.456   0.493   3.812
  108DIO     C948004   5.601   0.508   3.817
  108DIO    C1048005   5.674   0.476   3.938
  108DIO    C1148006   5.601   0.446   4.060
  108DIO    C1248007   5.457   0.434   4.057
  108DIO     F448008   5.392   0.401   4.170
  108DIO     O148009   5.806   0.515   3.942
  108DIO    C1348010   5.900   0.439   4.011
  108DIO     O248011   5.901   0.320   4.051
  108DIO    C1448012   6.029   0.507   4.023
  108DIO    C1548013   6.096   0.571   3.907
  108DIO     F548014   6.033   0.575   3.788
  108DIO    C1648015   6.226   0.633   3.916
  108DIO    C1748016   6.302   0.629   4.041
  108DIO    C1848017   6.233   0.582   4.160
  108DIO    C1948018   6.102   0.521   4.152
  108DIO     F648019   6.039   0.494   4.268
  108DIO    C2048020   6.443   0.683   4.049
  108DIO     O348021   6.513   0.681   3.923
  108DIO    C2148022   6.556   0.551   3.887
  108DIO    C2248023   6.645   0.491   3.995
  108DIO    C2348024   6.564   0.493   4.125
  108DIO     O448025   6.520   0.625   4.154
  108DIO    C2448026   6.778   0.567   4.014
  108DIO    C2548027   6.869   0.575   3.891
  108DIO    C2648028   6.907   0.440   3.834
  108DIO     H148029   5.187   0.569   4.105
  108DIO     H248030   5.228   0.297   3.757
  108DIO     H348031   5.405   0.515   3.720
  108DIO     H448032   5.656   0.543   3.731
  108DIO     H548033   5.655   0.428   4.152
  108DIO     H648034   6.265   0.685   3.829
  108DIO     H748035   6.276   0.597   4.259
  108DIO     H848036   6.433   0.789   4.074
  108DIO     H948037   6.470   0.487   3.868
  108DIO    H1048038   6.609   0.559   3.791
  108DIO    H1148039   6.668   0.386   3.970
  108DIO    H1248040   6.626   0.459   4.209
  108DIO    H1348041   6.478   0.425   4.119
  108DIO    H1448042   6.758   0.670   4.048
  108DIO    H1548043   6.834   0.519   4.095
  108DIO    H1648044   6.821   0.636   3.813
  108DIO    H1748045   6.960   0.629   3.919
  108DIO    H1848046   6.951   0.375   3.910
  108DIO    H1948047   6.821   0.389   3.791
  108DIO    H2048048   6.981   0.453   3.754
  109DIO     F148049   1.514   4.870   1.308
  109DIO     C148050   1.591   4.796   1.389
  109DIO     C248051   1.735   4.800   1.372
  109DIO     C348052   1.824   4.718   1.458
  109DIO     C448053   1.759   4.636   1.562
  109DIO     C548054   1.614   4.634   1.577
  109DIO     F248055   1.559   4.561   1.676
  109DIO     C648056   1.531   4.714   1.491
  109DIO     F348057   1.397   4.711   1.505
  109DIO     C748058   1.971   4.719   1.442
  109DIO     C848059   2.048   4.594   1.431
  109DIO     C948060   2.192   4.595   1.416
  109DIO    C1048061   2.265   4.720   1.422
  109DIO    C1148062   2.193   4.846   1.425
  109DIO    C1248063   2.048   4.845   1.437
  109DIO     F448064   1.984   4.963   1.446
  109DIO     O148065   2.397   4.716   1.383
  109DIO    C1348066   2.492   4.799   1.442
  109DIO     O248067   2.493   4.864   1.551
  109DIO    C1448068   2.621   4.797   1.373
  109DIO    C1548069   2.687   4.670   1.335
  109DIO     F548070   2.625   4.552   1.356
  109DIO    C1648071   2.818   4.665   1.273
  109DIO    C1748072   2.894   4.788   1.250
  109DIO    C1848073   2.825   4.915   1.271
  109DIO    C1948074   2.693   4.919   1.332
  109DIO     F648075   2.631   5.039   1.334
  109DIO    C2048076   3.034   4.784   1.196
  109DIO     O348077   3.104   4.663   1.224
  109DIO    C2148078   3.148   4.654   1.359
  109DIO    C2248079   3.237   4.773   1.395
  109DIO    C2348080   3.156   4.899   1.365
  109DIO     O448081   3.112   4.900   1.230
  109DIO    C2448082   3.370   4.775   1.316
  109DIO    C2548083   3.460   4.653   1.334
  109DIO    C2648084   3.499   4.626   1.479
  109DIO     H148085   1.778   4.863   1.296
  109DIO     H248086   1.819   4.582   1.634
  109DIO     H348087   1.996   4.499   1.429
  109DIO     H448088   2.248   4.503   1.399
  109DIO     H548089   2.247   4.940   1.423
  109DIO     H648090   2.856   4.570   1.240
  109DIO     H748091   2.868   5.008   1.235
  109DIO     H848092   3.025   4.787   1.087
  109DIO     H948093   3.061   4.650   1.426
  109DIO    H1048094   3.201   4.559   1.372
  109DIO    H1148095   3.259   4.770   1.502
  109DIO    H1248096   3.217   4.989   1.381
  109DIO    H1348097   3.070   4.907   1.433
  109DIO    H1448098   3.350   4.787   1.209
  109DIO    H1548099   3.426   4.864   1.347
  109DIO    H1648100   3.413   4.564   1.292
  109DIO    H1748101   3.552   4.670   1.276
  109DIO    H1848102   3.543   4.714   1.526
  109DIO    H1948103   3.412   4.595   1.538
  109DIO    H2048104   3.572   4.545   1.483
  110DIO     F148105   6.146   7.886   8.758
  110DIO     C148106   6.224   7.978   8.818
  110DIO     C248107   6.368   7.961   8.817
  110DIO     C348108   6.457   8.060   8.884
  110DIO     C448109   6.391   8.176   8.948
  110DIO     C548110   6.247   8.191   8.947
  110DIO     F248111   6.192   8.300   9.003
  110DIO     C648112   6.163   8.093   8.882
  110DIO     F348113   6.029   8.107   8.883
  110DIO     C748114   6.603   8.044   8.885
  110DIO     C848115   6.680   8.054   9.011
  110DIO     C948116   6.825   8.039   9.012
  110DIO    C1048117   6.898   8.023   8.888
  110DIO    C1148118   6.825   8.005   8.763
  110DIO    C1248119   6.681   8.018   8.762
  110DIO     F448120   6.616   8.006   8.644
  110DIO     O148121   7.030   7.985   8.898
  110DIO    C1348122   7.124   8.031   8.806
  110DIO     O248123   7.125   8.126   8.725
  110DIO    C1448124   7.253   7.962   8.820
  110DIO    C1548125   7.320   7.947   8.952
  110DIO     F548126   7.257   7.987   9.064
  110DIO    C1648127   7.450   7.886   8.966
  110DIO    C1748128   7.526   7.843   8.849
  110DIO    C1848129   7.457   7.842   8.721
  110DIO    C1948130   7.326   7.902   8.706
  110DIO     F648131   7.263   7.884   8.588
  110DIO    C2048132   7.667   7.790   8.862
  110DIO     O348133   7.737   7.838   8.977
  110DIO    C2148134   7.780   7.973   8.963
  110DIO    C2248135   7.869   7.988   8.840
  110DIO    C2348136   7.788   7.938   8.721
  110DIO     O448137   7.744   7.804   8.742
  110DIO    C2448138   8.002   7.910   8.851
  110DIO    C2548139   8.093   7.948   8.968
  110DIO    C2648140   8.131   8.095   8.971
  110DIO     H148141   6.411   7.875   8.767
  110DIO     H248142   6.452   8.256   8.989
  110DIO     H348143   6.629   8.067   9.105
  110DIO     H448144   6.880   8.038   9.105
  110DIO     H548145   6.879   7.988   8.671
  110DIO     H648146   7.489   7.869   9.067
  110DIO     H748147   7.500   7.792   8.635
  110DIO     H848148   7.657   7.682   8.877
  110DIO     H948149   7.694   8.039   8.957
  110DIO    H1048150   7.833   8.001   9.055
  110DIO    H1148151   7.892   8.094   8.825
  110DIO    H1248152   7.850   7.938   8.630
  110DIO    H1348153   7.702   8.003   8.701
  110DIO    H1448154   7.982   7.802   8.857
  110DIO    H1548155   8.058   7.925   8.758
  110DIO    H1648156   8.045   7.921   9.063
  110DIO    H1748157   8.184   7.888   8.962
  110DIO    H1848158   8.175   8.127   8.876
  110DIO    H1948159   8.045   8.159   8.992
  110DIO    H2048160   8.205   8.113   9.050
  111DIO     F148161   7.730   1.101   4.362
  111DIO     C148162   7.807   1.189   4.428
  111DIO     C248163   7.951   1.172   4.426
  111DIO     C348164   8.040   1.265   4.499
  111DIO     C448165   7.975   1.377   4.571
  111DIO     C548166   7.830   1.392   4.572
  111DIO     F248167   7.775   1.497   4.635
  111DIO     C648168   7.747   1.298   4.500
  111DIO     F348169   7.613   1.312   4.502
  111DIO     C748170   8.187   1.249   4.500
  111DIO     C848171   8.264   1.250   4.626
  111DIO     C948172   8.408   1.235   4.626
  111DIO    C1048173   8.481   1.229   4.501
  111DIO    C1148174   8.409   1.220   4.375
  111DIO    C1248175   8.264   1.232   4.375
  111DIO     F448176   8.200   1.229   4.257
  111DIO     O148177   8.613   1.190   4.509
  111DIO    C1348178   8.708   1.242   4.420
  111DIO     O248179   8.709   1.343   4.345
  111DIO    C1448180   8.837   1.173   4.429
  111DIO    C1548181   8.903   1.148   4.559
  111DIO     F548182   8.841   1.180   4.674
  111DIO    C1648183   9.034   1.086   4.570
  111DIO    C1748184   9.110   1.052   4.450
  111DIO    C1848185   9.041   1.059   4.322
  111DIO    C1948186   8.909   1.120   4.311
  111DIO     F648187   8.847   1.111   4.192
  111DIO    C2048188   9.250   0.998   4.459
  111DIO     O348189   9.320   1.038   4.577
  111DIO    C2148190   9.364   1.173   4.573
  111DIO    C2248191   9.453   1.197   4.451
  111DIO    C2348192   9.372   1.155   4.328
  111DIO     O448193   9.328   1.020   4.341
  111DIO    C2448194   9.586   1.118   4.456
  111DIO    C2548195   9.676   1.148   4.576
  111DIO    C2648196   9.715   1.295   4.589
  111DIO     H148197   7.994   1.089   4.371
  111DIO     H248198   8.035   1.454   4.618
  111DIO     H348199   8.212   1.258   4.721
  111DIO     H448200   8.464   1.228   4.719
  111DIO     H548201   8.463   1.209   4.282
  111DIO     H648202   9.072   1.062   4.669
  111DIO     H748203   9.084   1.015   4.233
  111DIO     H848204   9.241   0.889   4.467
  111DIO     H948205   9.277   1.240   4.571
  111DIO    H1048206   9.417   1.195   4.666
  111DIO    H1148207   9.475   1.304   4.443
  111DIO    H1248208   9.433   1.162   4.238
  111DIO    H1348209   9.286   1.221   4.313
  111DIO    H1448210   9.566   1.011   4.455
  111DIO    H1548211   9.642   1.140   4.365
  111DIO    H1648212   9.629   1.114   4.669
  111DIO    H1748213   9.768   1.089   4.565
  111DIO    H1848214   9.759   1.333   4.497
  111DIO    H1948215   9.628   1.357   4.615
  111DIO    H2048216   9.788   1.307   4.669
  112DIO     F148217   3.905   8.705   2.393
  112DIO     C148218   3.983   8.673   2.287
  112DIO     C248219   4.127   8.685   2.299
  112DIO     C348220   4.216   8.654   2.185
  112DIO     C448221   4.150   8.607   2.060
  112DIO     C548222   4.006   8.595   2.051
  112DIO     F248223   3.950   8.548   1.938
  112DIO     C648224   3.922   8.628   2.164
  112DIO     F348225   3.788   8.617   2.155
  112DIO     C748226   4.362   8.667   2.194
  112DIO     C848227   4.439   8.741   2.092
  112DIO     C948228   4.584   8.753   2.101
  112DIO    C1048229   4.656   8.684   2.205
  112DIO    C1148230   4.584   8.617   2.312
  112DIO    C1248231   4.440   8.607   2.304
  112DIO     F448232   4.375   8.539   2.401
  112DIO     O148233   4.789   8.720   2.222
  112DIO    C1348234   4.883   8.626   2.262
  112DIO     O248235   4.884   8.500   2.262
  112DIO    C1448236   5.012   8.687   2.296
  112DIO    C1548237   5.078   8.784   2.207
  112DIO     F548238   5.016   8.826   2.095
  112DIO    C1648239   5.209   8.840   2.235
  112DIO    C1748240   5.285   8.796   2.352
  112DIO    C1848241   5.216   8.713   2.450
  112DIO    C1948242   5.085   8.659   2.422
  112DIO     F648243   5.022   8.595   2.524
  112DIO    C2048244   5.426   8.845   2.376
  112DIO     O348245   5.495   8.883   2.257
  112DIO    C2148246   5.539   8.771   2.181
  112DIO    C2248247   5.628   8.680   2.264
  112DIO    C2348248   5.547   8.640   2.388
  112DIO     O448249   5.503   8.756   2.458
  112DIO    C2448250   5.761   8.746   2.307
  112DIO    C2548251   5.851   8.793   2.193
  112DIO    C2648252   5.890   8.684   2.095
  112DIO     H148253   4.169   8.718   2.393
  112DIO     H248254   4.211   8.573   1.977
  112DIO     H348255   4.388   8.792   2.011
  112DIO     H448256   4.639   8.815   2.031
  112DIO     H548257   4.638   8.570   2.393
  112DIO     H648258   5.247   8.917   2.170
  112DIO     H748259   5.259   8.696   2.548
  112DIO     H848260   5.416   8.937   2.435
  112DIO     H948261   5.452   8.717   2.143
  112DIO    H1048262   5.592   8.810   2.093
  112DIO    H1148263   5.651   8.589   2.207
  112DIO    H1248264   5.608   8.581   2.457
  112DIO    H1348265   5.461   8.578   2.360
  112DIO    H1448266   5.741   8.832   2.372
  112DIO    H1548267   5.817   8.674   2.368
  112DIO    H1648268   5.804   8.876   2.138
  112DIO    H1748269   5.943   8.835   2.237
  112DIO    H1848270   5.934   8.598   2.147
  112DIO    H1948271   5.803   8.649   2.038
  112DIO    H2048272   5.964   8.721   2.023
  113DIO     F148273   2.340   3.558   2.624
  113DIO     C148274   2.417   3.449   2.641
  113DIO     C248275   2.561   3.462   2.630
  113DIO     C348276   2.650   3.345   2.645
  113DIO     C448277   2.585   3.215   2.674
  113DIO     C548278   2.440   3.205   2.684
  113DIO     F248279   2.385   3.086   2.715
  113DIO     C648280   2.357   3.321   2.668
  113DIO     F348281   2.223   3.310   2.677
  113DIO     C748282   2.797   3.356   2.634
  113DIO     C848283   2.874   3.265   2.546
  113DIO     C948284   3.018   3.276   2.535
  113DIO    C1048285   3.091   3.370   2.618
  113DIO    C1148286   3.018   3.465   2.700
  113DIO    C1248287   2.874   3.457   2.709
  113DIO     F448288   2.809   3.543   2.790
  113DIO     O148289   3.223   3.391   2.585
  113DIO    C1348290   3.318   3.418   2.684
  113DIO     O248291   3.319   3.400   2.809
  113DIO    C1448292   3.447   3.460   2.628
  113DIO    C1548293   3.513   3.385   2.520
  113DIO     F548294   3.450   3.280   2.462
  113DIO    C1648295   3.644   3.421   2.468
  113DIO    C1748296   3.720   3.530   2.528
  113DIO    C1848297   3.651   3.616   2.624
  113DIO    C1948298   3.519   3.581   2.674
  113DIO     F648299   3.457   3.672   2.751
  113DIO    C2048300   3.860   3.562   2.483
  113DIO     O348301   3.930   3.449   2.428
  113DIO    C2148302   3.974   3.358   2.528
  113DIO    C2248303   4.063   3.427   2.631
  113DIO    C2348304   3.982   3.544   2.687
  113DIO     O448305   3.938   3.630   2.582
  113DIO    C2448306   4.195   3.479   2.571
  113DIO    C2548307   4.286   3.372   2.508
  113DIO    C2648308   4.325   3.260   2.603
  113DIO     H148309   2.604   3.560   2.611
  113DIO     H248310   2.645   3.128   2.696
  113DIO     H348311   2.822   3.193   2.484
  113DIO     H448312   3.073   3.215   2.464
  113DIO     H548313   3.073   3.539   2.758
  113DIO     H648314   3.682   3.367   2.382
  113DIO     H748315   3.694   3.710   2.655
  113DIO     H848316   3.851   3.633   2.400
  113DIO     H948317   3.887   3.312   2.577
  113DIO    H1048318   4.027   3.276   2.478
  113DIO    H1148319   4.085   3.358   2.712
  113DIO    H1248320   4.043   3.604   2.755
  113DIO    H1348321   3.896   3.508   2.745
  113DIO    H1448322   4.176   3.555   2.495
  113DIO    H1548323   4.252   3.529   2.651
  113DIO    H1648324   4.239   3.330   2.419
  113DIO    H1748325   4.378   3.422   2.473
  113DIO    H1848326   4.368   3.300   2.695
  113DIO    H1948327   4.238   3.199   2.629
  113DIO    H2048328   4.398   3.195   2.556
  114DIO     F148329   3.060   6.810   0.428
  114DIO     C148330   3.137   6.731   0.351
  114DIO     C248331   3.282   6.748   0.355
  114DIO     C348332   3.370   6.665   0.270
  114DIO     C448333   3.305   6.564   0.183
  114DIO     C548334   3.161   6.550   0.181
  114DIO     F248335   3.105   6.454   0.104
  114DIO     C648336   3.077   6.633   0.265
  114DIO     F348337   2.943   6.619   0.261
  114DIO     C748338   3.517   6.681   0.272
  114DIO     C848339   3.594   6.697   0.147
  114DIO     C948340   3.739   6.712   0.148
  114DIO    C1048341   3.811   6.702   0.273
  114DIO    C1148342   3.739   6.694   0.399
  114DIO    C1248343   3.595   6.681   0.397
  114DIO     F448344   3.530   6.669   0.515
  114DIO     O148345   3.943   6.741   0.271
  114DIO    C1348346   4.038   6.678   0.351
  114DIO     O248347   4.039   6.568   0.412
  114DIO    C1448348   4.167   6.748   0.352
  114DIO    C1548349   4.233   6.790   0.226
  114DIO     F548350   4.171   6.773   0.108
  114DIO    C1648351   4.364   6.853   0.224
  114DIO    C1748352   4.440   6.870   0.348
  114DIO    C1848353   4.371   6.845   0.474
  114DIO    C1948354   4.239   6.784   0.476
  114DIO     F648355   4.177   6.777   0.595
  114DIO    C2048356   4.581   6.925   0.346
  114DIO     O348357   4.650   6.901   0.223
  114DIO    C2148358   4.694   6.767   0.210
  114DIO    C2248359   4.783   6.726   0.327
  114DIO    C2348360   4.702   6.751   0.454
  114DIO     O448361   4.658   6.887   0.460
  114DIO    C2448362   4.916   6.805   0.332
  114DIO    C2548363   5.006   6.792   0.210
  114DIO    C2648364   5.045   6.648   0.177
  114DIO     H148365   3.324   6.822   0.421
  114DIO     H248366   3.365   6.495   0.127
  114DIO     H348367   3.542   6.703   0.052
  114DIO     H448368   3.794   6.732   0.057
  114DIO     H548369   3.793   6.692   0.493
  114DIO     H648370   4.402   6.889   0.130
  114DIO     H748371   4.414   6.877   0.568
  114DIO     H848372   4.571   7.034   0.353
  114DIO     H948373   4.607   6.700   0.203
  114DIO    H1048374   4.747   6.758   0.115
  114DIO    H1148375   4.805   6.619   0.320
  114DIO    H1248376   4.763   6.732   0.543
  114DIO    H1348377   4.616   6.684   0.460
  114DIO    H1448378   4.896   6.912   0.348
  114DIO    H1548379   4.972   6.771   0.420
  114DIO    H1648380   4.959   6.838   0.122
  114DIO    H1748381   5.098   6.849   0.228
  114DIO    H1848382   5.089   6.598   0.264
  114DIO    H1948383   4.958   6.590   0.143
  114DIO    H2048384   5.118   6.647   0.096
  115DIO     F148385   3.707   1.985   2.975
  115DIO     C148386   3.785   2.055   3.060
  115DIO     C248387   3.929   2.039   3.055
  115DIO     C348388   4.018   2.112   3.148
  115DIO     C448389   3.952   2.203   3.245
  115DIO     C548390   3.808   2.217   3.248
  115DIO     F248391   3.753   2.304   3.335
  115DIO     C648392   3.724   2.144   3.157
  115DIO     F348393   3.591   2.157   3.162
  115DIO     C748394   4.164   2.096   3.144
  115DIO     C848395   4.241   2.067   3.267
  115DIO     C948396   4.386   2.052   3.264
  115DIO    C1048397   4.459   2.076   3.140
  115DIO    C1148398   4.386   2.097   3.016
  115DIO    C1248399   4.242   2.109   3.019
  115DIO     F448400   4.177   2.135   2.904
  115DIO     O148401   4.591   2.037   3.139
  115DIO    C1348402   4.685   2.108   3.066
  115DIO     O248403   4.686   2.224   3.017
  115DIO    C1448404   4.815   2.039   3.058
  115DIO    C1548405   4.881   1.983   3.178
  115DIO     F548406   4.818   1.987   3.297
  115DIO    C1648407   5.012   1.921   3.173
  115DIO    C1748408   5.087   1.916   3.049
  115DIO    C1848409   5.019   1.955   2.926
  115DIO    C1948410   4.887   2.016   2.931
  115DIO     F648411   4.825   2.036   2.812
  115DIO    C2048412   5.228   1.862   3.044
  115DIO     O348413   5.298   1.872   3.169
  115DIO    C2148414   5.342   2.004   3.197
  115DIO    C2248415   5.430   2.057   3.085
  115DIO    C2348416   5.350   2.046   2.955
  115DIO     O448417   5.305   1.912   2.935
  115DIO    C2448418   5.563   1.980   3.071
  115DIO    C2548419   5.654   1.980   3.194
  115DIO    C2648420   5.692   2.119   3.242
  115DIO     H148421   3.972   1.972   2.981
  115DIO     H248422   4.013   2.266   3.309
  115DIO     H348423   4.190   2.051   3.361
  115DIO     H448424   4.441   2.022   3.352
  115DIO     H548425   4.441   2.109   2.924
  115DIO     H648426   5.050   1.874   3.263
  115DIO     H748427   5.062   1.933   2.829
  115DIO     H848428   5.218   1.754   3.026
  115DIO     H948429   5.255   2.070   3.211
  115DIO    H1048430   5.394   2.003   3.292
  115DIO    H1148431   5.453   2.163   3.103
  115DIO    H1248432   5.411   2.074   2.869
  115DIO    H1348433   5.264   2.114   2.957
  115DIO    H1448434   5.543   1.875   3.044
  115DIO    H1548435   5.620   2.022   2.987
  115DIO    H1648436   5.607   1.924   3.276
  115DIO    H1748437   5.746   1.925   3.170
  115DIO    H1848438   5.736   2.178   3.161
  115DIO    H1948439   5.606   2.173   3.282
  115DIO    H2048440   5.766   2.111   3.323
  116DIO     F148441   6.636   8.480   9.015
  116DIO     C148442   6.713   8.439   8.913
  116DIO     C248443   6.857   8.452   8.923
  116DIO     C348444   6.946   8.410   8.812
  116DIO     C448445   6.881   8.351   8.693
  116DIO     C548446   6.736   8.339   8.685
  116DIO     F248447   6.681   8.282   8.577
  116DIO     C648448   6.653   8.382   8.795
  116DIO     F348449   6.519   8.371   8.786
  116DIO     C748450   7.093   8.424   8.820
  116DIO     C848451   7.170   8.488   8.712
  116DIO     C948452   7.314   8.501   8.719
  116DIO    C1048453   7.387   8.442   8.830
  116DIO    C1148454   7.314   8.385   8.942
  116DIO    C1248455   7.170   8.374   8.936
  116DIO     F448456   7.105   8.316   9.039
  116DIO     O148457   7.519   8.479   8.843
  116DIO    C1348458   7.614   8.389   8.892
  116DIO     O248459   7.615   8.264   8.904
  116DIO    C1448460   7.743   8.453   8.920
  116DIO    C1548461   7.809   8.541   8.822
  116DIO     F548462   7.746   8.573   8.707
  116DIO    C1648463   7.940   8.600   8.845
  116DIO    C1748464   8.016   8.567   8.965
  116DIO    C1848465   7.947   8.494   9.071
  116DIO    C1948466   7.815   8.437   9.048
  116DIO     F648467   7.753   8.384   9.155
  116DIO    C2048468   8.156   8.618   8.985
  116DIO     O348469   8.226   8.645   8.863
  116DIO    C2148470   8.270   8.527   8.797
  116DIO    C2248471   8.359   8.443   8.889
  116DIO    C2348472   8.278   8.416   9.016
  116DIO     O448473   8.234   8.538   9.075
  116DIO    C2448474   8.491   8.513   8.925
  116DIO    C2548475   8.582   8.550   8.807
  116DIO    C2648476   8.621   8.431   8.720
  116DIO     H148477   6.900   8.494   9.013
  116DIO     H248478   6.941   8.310   8.613
  116DIO     H348479   7.118   8.531   8.627
  116DIO     H448480   7.369   8.555   8.644
  116DIO     H548481   7.369   8.346   9.027
  116DIO     H648482   7.978   8.671   8.772
  116DIO     H748483   7.990   8.486   9.170
  116DIO     H848484   8.147   8.716   9.035
  116DIO     H948485   8.183   8.469   8.764
  116DIO    H1048486   8.323   8.556   8.706
  116DIO    H1148487   8.381   8.348   8.840
  116DIO    H1248488   8.339   8.363   9.090
  116DIO    H1348489   8.192   8.352   8.994
  116DIO    H1448490   8.472   8.605   8.982
  116DIO    H1548491   8.548   8.448   8.993
  116DIO    H1648492   8.535   8.627   8.745
  116DIO    H1748493   8.674   8.595   8.847
  116DIO    H1848494   8.664   8.351   8.780
  116DIO    H1948495   8.534   8.391   8.666
  116DIO    H2048496   8.694   8.462   8.645
  117DIO     F148497   4.651   9.645   9.670
  117DIO     C148498   4.729   9.719   9.751
  117DIO     C248499   4.873   9.703   9.746
  117DIO     C348500   4.962   9.780   9.836
  117DIO     C448501   4.896   9.876   9.928
  117DIO     C548502   4.752   9.890   9.931
  117DIO     F248503   4.697   9.982  10.013
  117DIO     C648504   4.668   9.813   9.843
  117DIO     F348505   4.535   9.826   9.847
  117DIO     C748506   5.108   9.764   9.833
  117DIO     C848507   5.185   9.741   9.957
  117DIO     C948508   5.330   9.727   9.955
  117DIO    C1048509   5.403   9.744   9.830
  117DIO    C1148510   5.330   9.759   9.705
  117DIO    C1248511   5.186   9.771   9.708
  117DIO     F448512   5.121   9.791   9.591
  117DIO     O148513   5.535   9.705   9.831
  117DIO    C1348514   5.629   9.772   9.754
  117DIO     O248515   5.630   9.886   9.700
  117DIO    C1448516   5.758   9.703   9.749
  117DIO    C1548517   5.825   9.653   9.872
  117DIO     F548518   5.762   9.663   9.991
  117DIO    C1648519   5.956   9.591   9.871
  117DIO    C1748520   6.031   9.580   9.747
  117DIO    C1848521   5.963   9.612   9.622
  117DIO    C1948522   5.831   9.674   9.624
  117DIO     F648523   5.768   9.687   9.505
  117DIO    C2048524   6.172   9.525   9.745
  117DIO     O348525   6.242   9.542   9.869
  117DIO    C2148526   6.285   9.676   9.890
  117DIO    C2248527   6.374   9.723   9.775
  117DIO    C2348528   6.294   9.705   9.647
  117DIO     O448529   6.249   9.570   9.633
  117DIO    C2448530   6.507   9.644   9.766
  117DIO    C2548531   6.598   9.651   9.889
  117DIO    C2648532   6.636   9.792   9.930
  117DIO     H148533   4.916   9.632   9.676
  117DIO     H248534   4.957   9.943   9.989
  117DIO     H348535   5.134   9.730  10.052
  117DIO     H448536   5.385   9.701  10.044
  117DIO     H548537   5.385   9.766   9.612
  117DIO     H648538   5.994   9.549   9.963
  117DIO     H748539   6.005   9.586   9.526
  117DIO     H848540   6.162   9.417   9.732
  117DIO     H948541   6.199   9.742   9.901
  117DIO    H1048542   6.338   9.679   9.986
  117DIO    H1148543   6.397   9.829   9.788
  117DIO    H1248544   6.355   9.729   9.559
  117DIO    H1348545   6.207   9.773   9.645
  117DIO    H1448546   6.487   9.539   9.744
  117DIO    H1548547   6.564   9.683   9.680
  117DIO    H1648548   6.550   9.600   9.974
  117DIO    H1748549   6.690   9.595   9.867
  117DIO    H1848550   6.680   9.847   9.846
  117DIO    H1948551   6.550   9.848   9.966
  117DIO    H2048552   6.710   9.789  10.011
  118DIO     F148553   6.054   9.733   2.525
  118DIO     C148554   6.132   9.720   2.416
  118DIO     C248555   6.276   9.731   2.430
  118DIO     C348556   6.364   9.720   2.312
  118DIO     C448557   6.299   9.696   2.181
  118DIO     C548558   6.155   9.686   2.170
  118DIO     F248559   6.099   9.660   2.050
  118DIO     C648560   6.071   9.698   2.287
  118DIO     F348561   5.937   9.689   2.276
  118DIO     C748562   6.511   9.731   2.323
  118DIO     C848563   6.588   9.822   2.236
  118DIO     C948564   6.733   9.833   2.247
  118DIO    C1048565   6.805   9.746   2.337
  118DIO    C1148566   6.733   9.661   2.430
  118DIO    C1248567   6.589   9.652   2.421
  118DIO     F448568   6.524   9.568   2.504
  118DIO     O148569   6.937   9.778   2.360
  118DIO    C1348570   7.032   9.678   2.383
  118DIO     O248571   7.033   9.555   2.361
  118DIO    C1448572   7.161   9.732   2.427
  118DIO    C1548573   7.227   9.844   2.356
  118DIO     F548574   7.165   9.906   2.254
  118DIO    C1648575   7.358   9.894   2.394
  118DIO    C1748576   7.434   9.830   2.501
  118DIO    C1848577   7.365   9.732   2.583
  118DIO    C1948578   7.234   9.683   2.546
  118DIO     F648579   7.171   9.602   2.635
  118DIO    C2048580   7.575   9.874   2.534
  118DIO     O348581   7.644   9.933   2.424
  118DIO    C2148582   7.688   9.836   2.329
  118DIO    C2248583   7.777   9.731   2.394
  118DIO    C2348584   7.696   9.671   2.509
  118DIO     O448585   7.652   9.772   2.599
  118DIO    C2448586   7.910   9.789   2.448
  118DIO    C2548587   8.000   9.856   2.344
  118DIO    C2648588   8.039   9.765   2.229
  118DIO     H148589   6.318   9.747   2.528
  118DIO     H248590   6.360   9.677   2.093
  118DIO     H348591   6.536   9.886   2.166
  118DIO     H448592   6.788   9.905   2.189
  118DIO     H548593   6.787   9.600   2.501
  118DIO     H648594   7.396   9.982   2.343
  118DIO     H748595   7.408   9.697   2.677
  118DIO     H848596   7.565   9.954   2.608
  118DIO     H948597   7.601   9.789   2.281
  118DIO    H1048598   7.741   9.889   2.249
  118DIO    H1148599   7.799   9.652   2.322
  118DIO    H1248600   7.757   9.600   2.566
  118DIO    H1348601   7.610   9.615   2.471
  118DIO    H1448602   7.890   9.862   2.528
  118DIO    H1548603   7.966   9.708   2.495
  118DIO    H1648604   7.953   9.947   2.305
  118DIO    H1748605   8.092   9.889   2.395
  118DIO    H1848606   8.083   9.672   2.265
  118DIO    H1948607   7.952   9.741   2.166
  118DIO    H2048608   8.112   9.815   2.165
  119DIO     F148609   1.441   8.778   5.221
  119DIO     C148610   1.519   8.679   5.268
  119DIO     C248611   1.663   8.688   5.254
  119DIO     C348612   1.751   8.580   5.302
  119DIO     C448613   1.686   8.464   5.367
  119DIO     C548614   1.542   8.457   5.379
  119DIO     F248615   1.486   8.351   5.442
  119DIO     C648616   1.458   8.564   5.331
  119DIO     F348617   1.324   8.555   5.342
  119DIO     C748618   1.898   8.587   5.288
  119DIO     C848619   1.975   8.475   5.229
  119DIO     C948620   2.120   8.482   5.216
  119DIO    C1048621   2.192   8.596   5.269
  119DIO    C1148622   2.120   8.711   5.320
  119DIO    C1248623   1.976   8.705   5.331
  119DIO     F448624   1.911   8.811   5.384
  119DIO     O148625   2.324   8.607   5.232
  119DIO    C1348626   2.419   8.661   5.319
  119DIO     O248627   2.420   8.679   5.443
  119DIO    C1448628   2.548   8.685   5.253
  119DIO    C1548629   2.614   8.582   5.170
  119DIO     F548630   2.552   8.466   5.144
  119DIO    C1648631   2.745   8.602   5.111
  119DIO    C1748632   2.821   8.724   5.137
  119DIO    C1848633   2.752   8.834   5.204
  119DIO    C1948634   2.621   8.814   5.263
  119DIO     F648635   2.558   8.924   5.311
  119DIO    C2048636   2.962   8.742   5.085
  119DIO     O348637   3.031   8.618   5.064
  119DIO    C2148638   3.075   8.559   5.186
  119DIO    C2248639   3.164   8.655   5.265
  119DIO    C2348640   3.083   8.783   5.286
  119DIO     O448641   3.039   8.835   5.161
  119DIO    C2448642   3.297   8.687   5.193
  119DIO    C2548643   3.387   8.567   5.163
  119DIO    C2648644   3.426   8.487   5.286
  119DIO     H148645   1.705   8.776   5.208
  119DIO     H248646   1.747   8.386   5.412
  119DIO     H348647   1.923   8.388   5.191
  119DIO     H448648   2.175   8.404   5.165
  119DIO     H548649   2.174   8.798   5.355
  119DIO     H648650   2.783   8.526   5.043
  119DIO     H748651   2.795   8.933   5.207
  119DIO     H848652   2.952   8.786   4.985
  119DIO     H948653   2.988   8.529   5.246
  119DIO    H1048654   3.128   8.466   5.161
  119DIO    H1148655   3.186   8.611   5.363
  119DIO    H1248656   3.144   8.859   5.334
  119DIO    H1348657   2.997   8.764   5.351
  119DIO    H1448658   3.277   8.739   5.098
  119DIO    H1548659   3.353   8.758   5.255
  119DIO    H1648660   3.340   8.501   5.089
  119DIO    H1748661   3.479   8.605   5.116
  119DIO    H1848662   3.470   8.551   5.363
  119DIO    H1948663   3.339   8.435   5.329
  119DIO    H2048664   3.499   8.410   5.259
  120DIO     F148665   4.235   0.454   7.265
  120DIO     C148666   4.312   0.345   7.282
  120DIO     C248667   4.456   0.359   7.271
  120DIO     C348668   4.545   0.241   7.286
  120DIO     C448669   4.480   0.111   7.315
  120DIO     C548670   4.335   0.101   7.325
  120DIO     F248671   4.280  -0.018   7.356
  120DIO     C648672   4.252   0.217   7.309
  120DIO     F348673   4.118   0.206   7.318
  120DIO     C748674   4.692   0.252   7.275
  120DIO     C848675   4.769   0.161   7.187
  120DIO     C948676   4.913   0.172   7.176
  120DIO    C1048677   4.986   0.266   7.259
  120DIO    C1148678   4.913   0.362   7.341
  120DIO    C1248679   4.769   0.353   7.350
  120DIO     F448680   4.704   0.439   7.430
  120DIO     O148681   5.118   0.287   7.226
  120DIO    C1348682   5.213   0.314   7.325
  120DIO     O248683   5.214   0.296   7.449
  120DIO    C1448684   5.342   0.356   7.269
  120DIO    C1548685   5.408   0.281   7.160
  120DIO     F548686   5.345   0.176   7.103
  120DIO    C1648687   5.539   0.317   7.109
  120DIO    C1748688   5.615   0.426   7.169
  120DIO    C1848689   5.546   0.512   7.264
  120DIO    C1948690   5.414   0.477   7.315
  120DIO     F648691   5.352   0.568   7.392
  120DIO    C2048692   5.755   0.458   7.124
  120DIO     O348693   5.825   0.345   7.069
  120DIO    C2148694   5.869   0.254   7.169
  120DIO    C2248695   5.958   0.323   7.272
  120DIO    C2348696   5.877   0.440   7.328
  120DIO     O448697   5.833   0.526   7.223
  120DIO    C2448698   6.090   0.375   7.212
  120DIO    C2548699   6.181   0.269   7.149
  120DIO    C2648700   6.220   0.156   7.244
  120DIO     H148701   4.499   0.456   7.251
  120DIO     H248702   4.540   0.024   7.337
  120DIO     H348703   4.717   0.089   7.125
  120DIO     H448704   4.968   0.111   7.105
  120DIO     H548705   4.968   0.435   7.399
  120DIO     H648706   5.577   0.263   7.023
  120DIO     H748707   5.589   0.607   7.296
  120DIO     H848708   5.746   0.529   7.041
  120DIO     H948709   5.782   0.208   7.218
  120DIO    H1048710   5.922   0.172   7.119
  120DIO    H1148711   5.980   0.254   7.353
  120DIO    H1248712   5.938   0.500   7.396
  120DIO    H1348713   5.791   0.404   7.385
  120DIO    H1448714   6.071   0.451   7.136
  120DIO    H1548715   6.147   0.425   7.292
  120DIO    H1648716   6.134   0.226   7.060
  120DIO    H1748717   6.273   0.318   7.114
  120DIO    H1848718   6.263   0.196   7.336
  120DIO    H1948719   6.133   0.095   7.270
  120DIO    H2048720   6.293   0.091   7.197
  121DIO     F148721   4.779   3.714   2.608
  121DIO     C148722   4.856   3.753   2.505
  121DIO     C248723   5.000   3.756   2.522
  121DIO     C348724   5.089   3.801   2.412
  121DIO     C448725   5.024   3.839   2.285
  121DIO     C548726   4.879   3.836   2.271
  121DIO     F248727   4.824   3.868   2.152
  121DIO     C648728   4.796   3.792   2.380
  121DIO     F348729   4.662   3.790   2.366
  121DIO     C748730   5.236   3.805   2.428
  121DIO     C848731   5.313   3.927   2.392
  121DIO     C948732   5.457   3.931   2.406
  121DIO    C1048733   5.530   3.812   2.447
  121DIO    C1148734   5.458   3.694   2.490
  121DIO    C1248735   5.313   3.691   2.478
  121DIO     F448736   5.249   3.578   2.514
  121DIO     O148737   5.662   3.830   2.482
  121DIO    C1348738   5.757   3.731   2.457
  121DIO     O248739   5.758   3.632   2.380
  121DIO    C1448740   5.886   3.759   2.521
  121DIO    C1548741   5.952   3.891   2.509
  121DIO     F548742   5.890   3.992   2.446
  121DIO    C1648743   6.083   3.918   2.566
  121DIO    C1748744   6.159   3.812   2.631
  121DIO    C1848745   6.090   3.686   2.659
  121DIO    C1948746   5.958   3.660   2.604
  121DIO     F648747   5.896   3.548   2.645
  121DIO    C2048748   6.299   3.835   2.681
  121DIO     O348749   6.369   3.938   2.610
  121DIO    C2148750   6.413   3.897   2.481
  121DIO    C2248751   6.502   3.773   2.491
  121DIO    C2348752   6.421   3.666   2.565
  121DIO     O448753   6.377   3.715   2.692
  121DIO    C2448754   6.635   3.800   2.565
  121DIO    C2548755   6.725   3.907   2.504
  121DIO    C2648756   6.764   3.879   2.359
  121DIO     H148757   5.043   3.725   2.617
  121DIO     H248758   5.084   3.863   2.198
  121DIO     H348759   5.261   4.016   2.359
  121DIO     H448760   5.513   4.022   2.388
  121DIO     H548761   5.512   3.608   2.526
  121DIO     H648762   6.121   4.019   2.561
  121DIO     H748763   6.133   3.613   2.726
  121DIO     H848764   6.290   3.873   2.783
  121DIO     H948765   6.326   3.876   2.417
  121DIO    H1048766   6.466   3.980   2.435
  121DIO    H1148767   6.524   3.736   2.390
  121DIO    H1248768   6.482   3.578   2.584
  121DIO    H1348769   6.335   3.634   2.506
  121DIO    H1448770   6.615   3.828   2.669
  121DIO    H1548771   6.691   3.706   2.570
  121DIO    H1648772   6.678   4.005   2.511
  121DIO    H1748773   6.817   3.913   2.564
  121DIO    H1848774   6.808   3.780   2.348
  121DIO    H1948775   6.677   3.887   2.293
  121DIO    H2048776   6.837   3.953   2.325
  122DIO     F148777   7.024   9.816   7.564
  122DIO     C148778   7.101   9.820   7.674
  122DIO     C248779   7.245   9.811   7.660
  122DIO     C348780   7.334   9.814   7.778
  122DIO     C448781   7.269   9.828   7.910
  122DIO     C548782   7.124   9.837   7.922
  122DIO     F248783   7.069   9.854   8.043
  122DIO     C648784   7.041   9.834   7.804
  122DIO     F348785   6.907   9.841   7.816
  122DIO     C748786   7.481   9.803   7.766
  122DIO     C848787   7.558   9.706   7.846
  122DIO     C948788   7.702   9.696   7.835
  122DIO    C1048789   7.775   9.789   7.750
  122DIO    C1148790   7.703   9.881   7.664
  122DIO    C1248791   7.558   9.889   7.674
  122DIO     F448792   7.494   9.979   7.597
  122DIO     O148793   7.907   9.759   7.726
  122DIO    C1348794   8.002   9.860   7.710
  122DIO     O248795   8.003   9.982   7.741
  122DIO    C1448796   8.131   9.809   7.662
  122DIO    C1548797   8.197   9.693   7.725
  122DIO     F548798   8.135   9.624   7.822
  122DIO    C1648799   8.328   9.646   7.683
  122DIO    C1748800   8.404   9.717   7.581
  122DIO    C1848801   8.335   9.822   7.506
  122DIO    C1948802   8.203   9.868   7.547
  122DIO     F648803   8.141   9.954   7.464
  122DIO    C2048804   8.544   9.676   7.545
  122DIO     O348805   8.614   9.609   7.651
  122DIO    C2148806   8.658   9.698   7.753
  122DIO    C2248807   8.747   9.808   7.695
  122DIO    C2348808   8.666   9.877   7.585
  122DIO     O448809   8.622   9.782   7.488
  122DIO    C2448810   8.880   9.754   7.637
  122DIO    C2548811   8.970   9.680   7.736
  122DIO    C2648812   9.009   9.762   7.858
  122DIO     H148813   7.288   9.802   7.560
  122DIO     H248814   7.329   9.840   7.999
  122DIO     H348815   7.506   9.637   7.912
  122DIO     H448816   7.758   9.619   7.887
  122DIO     H548817   7.757   9.946   7.598
  122DIO     H648818   8.366   9.554   7.727
  122DIO     H748819   8.378   9.863   7.416
  122DIO     H848820   8.535   9.601   7.465
  122DIO     H948821   8.571   9.742   7.803
  122DIO    H1048822   8.711   9.640   7.828
  122DIO    H1148823   8.769   9.882   7.773
  122DIO    H1248824   8.727   9.951   7.533
  122DIO    H1348825   8.580   9.930   7.627
  122DIO    H1448826   8.860   9.687   7.552
  122DIO    H1548827   8.936   9.839   7.596
  122DIO    H1648828   8.923   9.587   7.768
  122DIO    H1748829   9.062   9.651   7.683
  122DIO    H1848830   9.053   9.858   7.829
  122DIO    H1948831   8.922   9.782   7.922
  122DIO    H2048832   9.082   9.708   7.918
  123DIO     F148833   3.348   5.628   6.366
  123DIO     C148834   3.425   5.529   6.413
  123DIO     C248835   3.569   5.538   6.399
  123DIO     C348836   3.658   5.430   6.447
  123DIO     C448837   3.593   5.314   6.512
  123DIO     C548838   3.448   5.307   6.525
  123DIO     F248839   3.393   5.202   6.588
  123DIO     C648840   3.365   5.414   6.476
  123DIO     F348841   3.231   5.406   6.488
  123DIO     C748842   3.805   5.437   6.433
  123DIO     C848843   3.882   5.325   6.375
  123DIO     C948844   4.026   5.332   6.361
  123DIO    C1048845   4.099   5.446   6.414
  123DIO    C1148846   4.026   5.561   6.465
  123DIO    C1248847   3.882   5.555   6.476
  123DIO     F448848   3.817   5.661   6.528
  123DIO     O148849   4.231   5.457   6.376
  123DIO    C1348850   4.326   5.511   6.463
  123DIO     O248851   4.327   5.530   6.588
  123DIO    C1448852   4.455   5.535   6.398
  123DIO    C1548853   4.521   5.432   6.315
  123DIO     F548854   4.458   5.315   6.290
  123DIO    C1648855   4.652   5.452   6.255
  123DIO    C1748856   4.728   5.574   6.281
  123DIO    C1848857   4.659   5.683   6.348
  123DIO    C1948858   4.527   5.664   6.406
  123DIO     F648859   4.465   5.774   6.454
  123DIO    C2048860   4.868   5.591   6.229
  123DIO     O348861   4.938   5.467   6.209
  123DIO    C2148862   4.982   5.409   6.331
  123DIO    C2248863   5.071   5.505   6.409
  123DIO    C2348864   4.990   5.633   6.430
  123DIO     O448865   4.946   5.685   6.305
  123DIO    C2448866   5.203   5.537   6.337
  123DIO    C2548867   5.294   5.417   6.308
  123DIO    C2648868   5.333   5.337   6.431
  123DIO     H148869   3.612   5.626   6.352
  123DIO     H248870   3.653   5.237   6.558
  123DIO     H348871   3.830   5.238   6.337
  123DIO     H448872   4.081   5.254   6.311
  123DIO     H548873   4.081   5.648   6.499
  123DIO     H648874   4.690   5.375   6.189
  123DIO     H748875   4.702   5.783   6.351
  123DIO     H848876   4.859   5.635   6.129
  123DIO     H948877   4.895   5.379   6.391
  123DIO    H1048878   5.035   5.316   6.307
  123DIO    H1148879   5.093   5.462   6.508
  123DIO    H1248880   5.051   5.710   6.478
  123DIO    H1348881   4.904   5.615   6.495
  123DIO    H1448882   5.184   5.588   6.242
  123DIO    H1548883   5.260   5.608   6.399
  123DIO    H1648884   5.247   5.351   6.234
  123DIO    H1748885   5.386   5.454   6.260
  123DIO    H1848886   5.376   5.401   6.508
  123DIO    H1948887   5.246   5.285   6.474
  123DIO    H2048888   5.406   5.260   6.405
  124DIO     F148889   5.314   7.271   4.526
  124DIO     C148890   5.392   7.248   4.634
  124DIO     C248891   5.536   7.243   4.618
  124DIO     C348892   5.625   7.215   4.733
  124DIO     C448893   5.559   7.196   4.864
  124DIO     C548894   5.415   7.202   4.878
  124DIO     F248895   5.360   7.188   5.000
  124DIO     C648896   5.331   7.228   4.763
  124DIO     F348897   5.197   7.232   4.777
  124DIO     C748898   5.771   7.208   4.718
  124DIO     C848899   5.848   7.094   4.772
  124DIO     C948900   5.993   7.087   4.758
  124DIO    C1048901   6.066   7.198   4.700
  124DIO    C1148902   5.993   7.309   4.640
  124DIO    C1248903   5.849   7.314   4.651
  124DIO     F448904   5.784   7.420   4.599
  124DIO     O148905   6.198   7.175   4.668
  124DIO    C1348906   6.292   7.277   4.678
  124DIO     O248907   6.293   7.387   4.740
  124DIO    C1448908   6.421   7.240   4.619
  124DIO    C1548909   6.488   7.112   4.651
  124DIO     F548910   6.425   7.020   4.728
  124DIO    C1648911   6.618   7.076   4.599
  124DIO    C1748912   6.694   7.171   4.518
  124DIO    C1848913   6.625   7.291   4.472
  124DIO    C1948914   6.494   7.326   4.523
  124DIO     F648915   6.431   7.430   4.465
  124DIO    C2048916   6.835   7.141   4.472
  124DIO     O348917   6.905   7.049   4.558
  124DIO    C2148918   6.948   7.110   4.679
  124DIO    C2248919   7.037   7.231   4.651
  124DIO    C2348920   6.956   7.325   4.561
  124DIO     O448921   6.912   7.258   4.444
  124DIO    C2448922   7.170   7.193   4.581
  124DIO    C2548923   7.261   7.097   4.658
  124DIO    C2648924   7.299   7.145   4.797
  124DIO     H148925   5.579   7.259   4.519
  124DIO     H248926   5.620   7.185   4.954
  124DIO     H348927   5.797   7.010   4.818
  124DIO     H448928   6.048   7.000   4.790
  124DIO     H548929   6.047   7.389   4.592
  124DIO     H648930   6.657   6.977   4.618
  124DIO     H748931   6.668   7.354   4.394
  124DIO     H848932   6.825   7.088   4.376
  124DIO     H948933   6.862   7.139   4.739
  124DIO    H1048934   7.001   7.034   4.737
  124DIO    H1148935   7.060   7.282   4.745
  124DIO    H1248936   7.018   7.410   4.530
  124DIO    H1348937   6.870   7.366   4.616
  124DIO    H1448938   7.150   7.149   4.483
  124DIO    H1548939   7.226   7.285   4.563
  124DIO    H1648940   7.213   6.998   4.666
  124DIO    H1748941   7.352   7.082   4.600
  124DIO    H1848942   7.343   7.245   4.793
  124DIO    H1948943   7.213   7.148   4.864
  124DIO    H2048944   7.373   7.078   4.841
  125DIO     F148945   3.519   7.672   3.958
  125DIO     C148946   3.597   7.619   3.861
  125DIO     C248947   3.741   7.634   3.870
  125DIO     C348948   3.829   7.579   3.765
  125DIO     C448949   3.764   7.508   3.653
  125DIO     C548950   3.620   7.495   3.647
  125DIO     F248951   3.564   7.425   3.545
  125DIO     C648952   3.536   7.550   3.750
  125DIO     F348953   3.402   7.538   3.743
  125DIO     C748954   3.976   7.594   3.771
  125DIO     C848955   4.053   7.646   3.656
  125DIO     C948956   4.198   7.660   3.662
  125DIO    C1048957   4.270   7.613   3.779
  125DIO    C1148958   4.198   7.569   3.897
  125DIO    C1248959   4.054   7.558   3.892
  125DIO     F448960   3.989   7.512   4.000
  125DIO     O148961   4.402   7.652   3.788
  125DIO    C1348962   4.497   7.568   3.847
  125DIO     O248963   4.498   7.445   3.872
  125DIO    C1448964   4.626   7.635   3.867
  125DIO    C1548965   4.692   7.711   3.759
  125DIO     F548966   4.630   7.730   3.641
  125DIO    C1648967   4.823   7.772   3.775
  125DIO    C1748968   4.899   7.753   3.899
  125DIO    C1848969   4.830   7.693   4.012
  125DIO    C1948970   4.699   7.633   3.996
  125DIO     F648971   4.636   7.592   4.109
  125DIO    C2048972   5.040   7.806   3.913
  125DIO     O348973   5.109   7.819   3.789
  125DIO    C2148974   5.153   7.694   3.737
  125DIO    C2248975   5.242   7.621   3.837
  125DIO    C2348976   5.161   7.608   3.966
  125DIO     O448977   5.117   7.736   4.011
  125DIO    C2448978   5.375   7.695   3.865
  125DIO    C2548979   5.465   7.718   3.744
  125DIO    C2648980   5.504   7.590   3.671
  125DIO     H148981   3.783   7.686   3.955
  125DIO     H248982   3.825   7.457   3.578
  125DIO     H348983   4.001   7.679   3.567
  125DIO     H448984   4.253   7.705   3.581
  125DIO     H548985   4.252   7.540   3.986
  125DIO     H648986   4.861   7.834   3.696
  125DIO     H748987   4.873   7.696   4.112
  125DIO     H848988   5.030   7.908   3.951
  125DIO     H948989   5.066   7.632   3.711
  125DIO    H1048990   5.206   7.713   3.643
  125DIO    H1148991   5.264   7.521   3.800
  125DIO    H1248992   5.222   7.565   4.046
  125DIO    H1348993   5.075   7.542   3.952
  125DIO    H1448994   5.355   7.793   3.911
  125DIO    H1548995   5.431   7.637   3.940
  125DIO    H1648996   5.418   7.787   3.673
  125DIO    H1748997   5.557   7.767   3.778
  125DIO    H1848998   5.548   7.517   3.739
  125DIO    H1948999   5.417   7.544   3.622
  125DIO    H2049000   5.577   7.612   3.593
  126DIO     F149001   4.856   5.581   2.364
  126DIO     C149002   4.933   5.514   2.277
  126DIO     C249003   5.077   5.529   2.284
  126DIO     C349004   5.166   5.459   2.188
  126DIO     C449005   5.101   5.371   2.088
  126DIO     C549006   4.956   5.357   2.084
  126DIO     F249007   4.901   5.273   1.995
  126DIO     C649008   4.873   5.428   2.178
  126DIO     F349009   4.739   5.415   2.173
  126DIO     C749010   5.313   5.475   2.192
  126DIO     C849011   5.390   5.508   2.070
  126DIO     C949012   5.534   5.523   2.074
  126DIO    C1049013   5.607   5.495   2.197
  126DIO    C1149014   5.535   5.470   2.320
  126DIO    C1249015   5.390   5.458   2.317
  126DIO     F449016   5.326   5.429   2.431
  126DIO     O149017   5.739   5.534   2.199
  126DIO    C1349018   5.834   5.461   2.271
  126DIO     O249019   5.835   5.343   2.315
  126DIO    C1449020   5.963   5.530   2.281
  126DIO    C1549021   6.029   5.589   2.162
  126DIO     F549022   5.967   5.589   2.043
  126DIO    C1649023   6.160   5.651   2.169
  126DIO    C1749024   6.236   5.652   2.293
  126DIO    C1849025   6.167   5.609   2.415
  126DIO    C1949026   6.035   5.548   2.408
  126DIO     F649027   5.973   5.525   2.526
  126DIO    C2049028   6.376   5.706   2.299
  126DIO     O349029   6.446   5.700   2.174
  126DIO    C2149030   6.490   5.568   2.143
  126DIO    C2249031   6.579   5.512   2.253
  126DIO    C2349032   6.498   5.519   2.383
  126DIO     O449033   6.454   5.652   2.407
  126DIO    C2449034   6.712   5.589   2.269
  126DIO    C2549035   6.802   5.593   2.146
  126DIO    C2649036   6.841   5.455   2.093
  126DIO     H149037   5.120   5.594   2.360
  126DIO     H249038   5.161   5.310   2.023
  126DIO     H349039   5.338   5.527   1.977
  126DIO     H449040   5.590   5.555   1.987
  126DIO     H549041   5.589   5.455   2.412
  126DIO     H649042   6.198   5.701   2.080
  126DIO     H749043   6.210   5.628   2.513
  126DIO     H849044   6.367   5.813   2.321
  126DIO     H949045   6.403   5.503   2.126
  126DIO    H1049046   6.543   5.573   2.047
  126DIO    H1149047   6.601   5.407   2.232
  126DIO    H1249048   6.559   5.488   2.468
  126DIO    H1349049   6.412   5.451   2.379
  126DIO    H1449050   6.692   5.693   2.300
  126DIO    H1549051   6.768   5.544   2.352
  126DIO    H1649052   6.755   5.651   2.066
  126DIO    H1749053   6.894   5.647   2.172
  126DIO    H1849054   6.885   5.394   2.173
  126DIO    H1949055   6.754   5.402   2.052
  126DIO    H2049056   6.914   5.465   2.013
  127DIO     F149057   5.285   3.519   8.464
  127DIO     C149058   5.363   3.562   8.566
  127DIO     C249059   5.507   3.548   8.556
  127DIO     C349060   5.596   3.592   8.666
  127DIO     C449061   5.530   3.652   8.784
  127DIO     C549062   5.386   3.664   8.792
  127DIO     F249063   5.331   3.723   8.900
  127DIO     C649064   5.302   3.620   8.683
  127DIO     F349065   5.169   3.631   8.692
  127DIO     C749066   5.742   3.578   8.658
  127DIO     C849067   5.819   3.515   8.767
  127DIO     C949068   5.964   3.502   8.760
  127DIO    C1049069   6.037   3.559   8.648
  127DIO    C1149070   5.964   3.615   8.535
  127DIO    C1249071   5.820   3.626   8.542
  127DIO     F449072   5.755   3.683   8.438
  127DIO     O149073   6.169   3.522   8.636
  127DIO    C1349074   6.263   3.611   8.586
  127DIO     O249075   6.264   3.736   8.572
  127DIO    C1449076   6.392   3.547   8.558
  127DIO    C1549077   6.459   3.460   8.658
  127DIO     F549078   6.396   3.430   8.774
  127DIO    C1649079   6.590   3.401   8.636
  127DIO    C1749080   6.665   3.432   8.515
  127DIO    C1849081   6.597   3.504   8.408
  127DIO    C1949082   6.465   3.561   8.430
  127DIO     F649083   6.402   3.613   8.322
  127DIO    C2049084   6.806   3.381   8.496
  127DIO     O349085   6.876   3.356   8.618
  127DIO    C2149086   6.919   3.475   8.682
  127DIO    C2249087   7.008   3.557   8.590
  127DIO    C2349088   6.928   3.583   8.462
  127DIO     O449089   6.883   3.460   8.405
  127DIO    C2449090   7.141   3.487   8.554
  127DIO    C2549091   7.232   3.452   8.673
  127DIO    C2649092   7.270   3.572   8.758
  127DIO     H149093   5.550   3.505   8.466
  127DIO     H249094   5.591   3.695   8.863
  127DIO     H349095   5.768   3.473   8.853
  127DIO     H449096   6.019   3.449   8.836
  127DIO     H549097   6.019   3.653   8.450
  127DIO     H649098   6.628   3.331   8.709
  127DIO     H749099   6.639   3.510   8.309
  127DIO     H849100   6.796   3.283   8.448
  127DIO     H949101   6.833   3.534   8.714
  127DIO    H1049102   6.972   3.447   8.774
  127DIO    H1149103   7.031   3.654   8.637
  127DIO    H1249104   6.989   3.634   8.388
  127DIO    H1349105   6.841   3.648   8.483
  127DIO    H1449106   7.121   3.394   8.499
  127DIO    H1549107   7.198   3.551   8.486
  127DIO    H1649108   7.184   3.376   8.736
  127DIO    H1749109   7.324   3.406   8.634
  127DIO    H1849110   7.314   3.651   8.697
  127DIO    H1949111   7.184   3.613   8.811
  127DIO    H2049112   7.344   3.542   8.834
  128DIO     F149113   3.208   0.247   4.704
  128DIO     C149114   3.285   0.348   4.660
  128DIO     C249115   3.429   0.338   4.674
  128DIO     C349116   3.518   0.447   4.628
  128DIO     C449117   3.453   0.565   4.567
  128DIO     C549118   3.308   0.573   4.554
  128DIO     F249119   3.253   0.680   4.494
  128DIO     C649120   3.225   0.464   4.600
  128DIO     F349121   3.091   0.473   4.589
  128DIO     C749122   3.665   0.440   4.642
  128DIO     C849123   3.742   0.550   4.704
  128DIO     C949124   3.886   0.543   4.717
  128DIO    C1049125   3.959   0.431   4.661
  128DIO    C1149126   3.887   0.317   4.607
  128DIO    C1249127   3.742   0.323   4.596
  128DIO     F449128   3.678   0.219   4.541
  128DIO     O149129   4.091   0.419   4.698
  128DIO    C1349130   4.186   0.367   4.610
  128DIO     O249131   4.187   0.352   4.485
  128DIO    C1449132   4.315   0.341   4.675
  128DIO    C1549133   4.381   0.442   4.760
  128DIO     F549134   4.319   0.558   4.789
  128DIO    C1649135   4.512   0.421   4.819
  128DIO    C1749136   4.588   0.299   4.790
  128DIO    C1849137   4.519   0.191   4.720
  128DIO    C1949138   4.387   0.212   4.662
  128DIO     F649139   4.325   0.104   4.612
  128DIO    C2049140   4.728   0.281   4.842
  128DIO     O349141   4.798   0.403   4.865
  128DIO    C2149142   4.842   0.466   4.745
  128DIO    C2249143   4.931   0.372   4.664
  128DIO    C2349144   4.850   0.244   4.640
  128DIO     O449145   4.806   0.189   4.764
  128DIO    C2449146   5.064   0.338   4.735
  128DIO    C2549147   5.154   0.457   4.768
  128DIO    C2649148   5.193   0.540   4.647
  128DIO     H149149   3.472   0.249   4.718
  128DIO     H249150   3.513   0.644   4.523
  128DIO     H349151   3.690   0.636   4.744
  128DIO     H449152   3.942   0.620   4.769
  128DIO     H549153   3.941   0.231   4.570
  128DIO     H649154   4.550   0.495   4.888
  128DIO     H749155   4.562   0.092   4.715
  128DIO     H849156   4.719   0.234   4.940
  128DIO     H949157   4.755   0.497   4.686
  128DIO    H1049158   4.895   0.558   4.772
  128DIO    H1149159   4.953   0.418   4.567
  128DIO    H1249160   4.911   0.169   4.590
  128DIO    H1349161   4.764   0.264   4.575
  128DIO    H1449162   5.044   0.284   4.828
  128DIO    H1549163   5.120   0.269   4.671
  128DIO    H1649164   5.107   0.521   4.843
  128DIO    H1749165   5.246   0.418   4.814
  128DIO    H1849166   5.237   0.478   4.568
  128DIO    H1949167   5.106   0.593   4.605
  128DIO    H2049168   5.266   0.616   4.676
  129DIO     F149169   8.010   8.314   1.358
  129DIO     C149170   8.088   8.224   1.296
  129DIO     C249171   8.232   8.241   1.297
  129DIO     C349172   8.321   8.145   1.228
  129DIO     C449173   8.255   8.031   1.160
  129DIO     C549174   8.111   8.016   1.160
  129DIO     F249175   8.056   7.909   1.100
  129DIO     C649176   8.027   8.112   1.228
  129DIO     F349177   7.894   8.098   1.227
  129DIO     C749178   8.467   8.161   1.227
  129DIO     C849179   8.544   8.155   1.101
  129DIO     C949180   8.689   8.170   1.100
  129DIO    C1049181   8.762   8.181   1.225
  129DIO    C1149182   8.689   8.195   1.350
  129DIO    C1249183   8.545   8.182   1.350
  129DIO     F449184   8.480   8.190   1.468
  129DIO     O149185   8.894   8.219   1.215
  129DIO    C1349186   8.988   8.171   1.306
  129DIO     O249187   8.989   8.073   1.384
  129DIO    C1449188   9.118   8.240   1.294
  129DIO    C1549189   9.184   8.260   1.163
  129DIO     F549190   9.121   8.224   1.050
  129DIO    C1649191   9.315   8.322   1.151
  129DIO    C1749192   9.390   8.360   1.269
  129DIO    C1849193   9.322   8.357   1.398
  129DIO    C1949194   9.190   8.297   1.410
  129DIO     F649195   9.128   8.310   1.529
  129DIO    C2049196   9.531   8.414   1.258
  129DIO     O349197   9.601   8.370   1.141
  129DIO    C2149198   9.645   8.234   1.151
  129DIO    C2249199   9.733   8.215   1.273
  129DIO    C2349200   9.653   8.261   1.395
  129DIO     O449201   9.608   8.395   1.377
  129DIO    C2449202   9.866   8.293   1.265
  129DIO    C2549203   9.957   8.259   1.147
  129DIO    C2649204   9.995   8.112   1.139
  129DIO     H149205   8.275   8.325   1.350
  129DIO     H249206   8.316   7.952   1.116
  129DIO     H349207   8.493   8.145   1.006
  129DIO     H449208   8.744   8.174   1.007
  129DIO     H549209   8.744   8.209   1.442
  129DIO     H649210   9.353   8.342   1.051
  129DIO     H749211   9.365   8.404   1.485
  129DIO     H849212   9.521   8.522   1.246
  129DIO     H949213   9.558   8.168   1.155
  129DIO    H1049214   9.697   8.209   1.059
  129DIO    H1149215   9.756   8.108   1.285
  129DIO    H1249216   9.714   8.258   1.485
  129DIO    H1349217   9.567   8.195   1.412
  129DIO    H1449218   9.846   8.401   1.263
  129DIO    H1549219   9.923   8.275   1.358
  129DIO    H1649220   9.910   8.290   1.053
  129DIO    H1749221  10.049   8.319   1.155
  129DIO    H1849222  10.039   8.078   1.233
  129DIO    H1949223   9.909   8.049   1.116
  129DIO    H2049224  10.069   8.097   1.059
  130DIO     F149225   5.186   7.733   5.385
  130DIO     C149226   5.263   7.709   5.492
  130DIO     C249227   5.407   7.704   5.476
  130DIO     C349228   5.496   7.675   5.591
  130DIO     C449229   5.431   7.655   5.722
  130DIO     C549230   5.286   7.660   5.736
  130DIO     F249231   5.231   7.645   5.857
  130DIO     C649232   5.203   7.688   5.621
  130DIO     F349233   5.069   7.692   5.635
  130DIO     C749234   5.642   7.668   5.576
  130DIO     C849235   5.720   7.553   5.629
  130DIO     C949236   5.864   7.547   5.615
  130DIO    C1049237   5.937   7.659   5.558
  130DIO    C1149238   5.864   7.770   5.499
  130DIO    C1249239   5.720   7.775   5.510
  130DIO     F449240   5.655   7.882   5.459
  130DIO     O149241   6.069   7.636   5.526
  130DIO    C1349242   6.164   7.738   5.537
  130DIO     O249243   6.164   7.847   5.599
  130DIO    C1449244   6.293   7.701   5.478
  130DIO    C1549245   6.359   7.573   5.508
  130DIO     F549246   6.296   7.481   5.584
  130DIO    C1649247   6.490   7.538   5.455
  130DIO    C1749248   6.566   7.634   5.375
  130DIO    C1849249   6.497   7.754   5.330
  130DIO    C1949250   6.365   7.788   5.382
  130DIO     F649251   6.303   7.893   5.325
  130DIO    C2049252   6.706   7.603   5.330
  130DIO     O349253   6.776   7.511   5.414
  130DIO    C2149254   6.820   7.571   5.536
  130DIO    C2249255   6.909   7.692   5.509
  130DIO    C2349256   6.828   7.787   5.421
  130DIO     O449257   6.784   7.721   5.302
  130DIO    C2449258   7.041   7.655   5.439
  130DIO    C2549259   7.132   7.557   5.515
  130DIO    C2649260   7.170   7.605   5.654
  130DIO     H149261   5.450   7.721   5.378
  130DIO     H249262   5.491   7.643   5.811
  130DIO     H349263   5.668   7.470   5.674
  130DIO     H449264   5.919   7.459   5.646
  130DIO     H549265   5.919   7.851   5.451
  130DIO     H649266   6.528   7.438   5.474
  130DIO     H749267   6.540   7.817   5.254
  130DIO     H849268   6.697   7.552   5.233
  130DIO     H949269   6.733   7.600   5.596
  130DIO    H1049270   6.872   7.494   5.594
  130DIO    H1149271   6.931   7.742   5.603
  130DIO    H1249272   6.889   7.872   5.390
  130DIO    H1349273   6.742   7.827   5.475
  130DIO    H1449274   7.021   7.612   5.340
  130DIO    H1549275   7.098   7.747   5.421
  130DIO    H1649276   7.085   7.459   5.522
  130DIO    H1749277   7.224   7.543   5.456
  130DIO    H1849278   7.214   7.705   5.651
  130DIO    H1949279   7.084   7.607   5.721
  130DIO    H2049280   7.244   7.537   5.698
  131DIO     F149281   5.739   8.414   9.915
  131DIO     C149282   5.816   8.430   9.806
  131DIO     C249283   5.960   8.436   9.821
  131DIO     C349284   6.049   8.456   9.705
  131DIO     C449285   5.984   8.466   9.572
  131DIO     C549286   5.839   8.459   9.559
  131DIO     F249287   5.784   8.465   9.436
  131DIO     C649288   5.756   8.441   9.675
  131DIO     F349289   5.622   8.436   9.662
  131DIO     C749290   6.195   8.464   9.718
  131DIO     C849291   6.273   8.574   9.657
  131DIO     C949292   6.417   8.582   9.670
  131DIO    C1049293   6.490   8.475   9.736
  131DIO    C1149294   6.417   8.369   9.804
  131DIO    C1249295   6.273   8.363   9.793
  131DIO     F449296   6.208   8.260   9.852
  131DIO     O149297   6.622   8.500   9.766
  131DIO    C1349298   6.717   8.398   9.763
  131DIO     O249299   6.717   8.284   9.710
  131DIO    C1449300   6.846   8.439   9.819
  131DIO    C1549301   6.912   8.565   9.779
  131DIO     F549302   6.849   8.650   9.696
  131DIO    C1649303   7.043   8.604   9.829
  131DIO    C1749304   7.119   8.515   9.916
  131DIO    C1849305   7.050   8.398   9.970
  131DIO    C1949306   6.918   8.360   9.922
  131DIO     F649307   6.856   8.260   9.987
  131DIO    C2049308   7.259   8.548   9.959
  131DIO     O349309   7.329   8.633   9.867
  131DIO    C2149310   7.373   8.564   9.751
  131DIO    C2249311   7.462   8.446   9.787
  131DIO    C2349312   7.381   8.358   9.883
  131DIO     O449313   7.337   8.433   9.996
  131DIO    C2449314   7.594   8.488   9.854
  131DIO    C2549315   7.685   8.579   9.771
  131DIO    C2649316   7.723   8.521   9.636
  131DIO     H149317   6.003   8.427   9.921
  131DIO     H249318   6.044   8.470   9.482
  131DIO     H349319   6.221   8.654   9.606
  131DIO     H449320   6.472   8.667   9.633
  131DIO     H549321   6.472   8.292   9.858
  131DIO     H649322   7.081   8.701   9.802
  131DIO     H749323   7.093   8.341  10.052
  131DIO     H849324   7.250   8.607  10.051
  131DIO     H949325   7.286   8.531   9.693
  131DIO    H1049326   7.425   8.636   9.687
  131DIO    H1149327   7.484   8.388   9.697
  131DIO    H1249328   7.442   8.275   9.920
  131DIO    H1349329   7.295   8.314   9.832
  131DIO    H1449330   7.574   8.539   9.949
  131DIO    H1549331   7.651   8.397   9.879
  131DIO    H1649332   7.638   8.677   9.756
  131DIO    H1749333   7.777   8.598   9.828
  131DIO    H1849334   7.767   8.421   9.647
  131DIO    H1949335   7.637   8.514   9.569
  131DIO    H2049336   7.797   8.585   9.587
  132DIO     F149337   2.737   2.054   5.844
  132DIO     C149338   2.814   2.160   5.871
  132DIO     C249339   2.958   2.144   5.876
  132DIO     C349340   3.047   2.258   5.908
  132DIO     C449341   2.982   2.388   5.933
  132DIO     C549342   2.837   2.402   5.928
  132DIO     F249343   2.782   2.523   5.947
  132DIO     C649344   2.754   2.289   5.897
  132DIO     F349345   2.620   2.303   5.893
  132DIO     C749346   3.194   2.243   5.915
  132DIO     C849347   3.271   2.292   6.031
  132DIO     C949348   3.415   2.278   6.037
  132DIO    C1049349   3.488   2.224   5.924
  132DIO    C1149350   3.415   2.169   5.811
  132DIO    C1249351   3.271   2.180   5.806
  132DIO     F449352   3.206   2.133   5.698
  132DIO     O149353   3.620   2.192   5.945
  132DIO    C1349354   3.715   2.206   5.844
  132DIO     O249355   3.716   2.272   5.737
  132DIO    C1449356   3.844   2.146   5.878
  132DIO    C1549357   3.910   2.172   6.008
  132DIO     F549358   3.847   2.245   6.103
  132DIO    C1649359   4.041   2.118   6.041
  132DIO    C1749360   4.117   2.041   5.943
  132DIO    C1849361   4.048   2.000   5.821
  132DIO    C1949362   3.916   2.053   5.789
  132DIO     F649363   3.854   1.999   5.682
  132DIO    C2049364   4.257   1.995   5.972
  132DIO     O349365   4.327   2.076   6.067
  132DIO    C2149366   4.371   2.200   6.011
  132DIO    C2249367   4.460   2.177   5.889
  132DIO    C2349368   4.379   2.091   5.791
  132DIO     O449369   4.335   1.971   5.854
  132DIO    C2449370   4.592   2.106   5.924
  132DIO    C2549371   4.683   2.178   6.024
  132DIO    C2649372   4.722   2.319   5.981
  132DIO     H149373   3.001   2.046   5.855
  132DIO     H249374   3.042   2.477   5.947
  132DIO     H349375   3.219   2.334   6.116
  132DIO     H449376   3.470   2.306   6.126
  132DIO     H549377   3.470   2.124   5.729
  132DIO     H649378   4.079   2.134   6.142
  132DIO     H749379   4.091   1.926   5.755
  132DIO     H849380   4.248   1.897   6.020
  132DIO     H949381   4.284   2.261   5.984
  132DIO    H1049382   4.424   2.255   6.089
  132DIO    H1149383   4.482   2.273   5.842
  132DIO    H1249384   4.440   2.064   5.705
  132DIO    H1349385   4.293   2.147   5.753
  132DIO    H1449386   4.573   2.005   5.963
  132DIO    H1549387   4.649   2.091   5.831
  132DIO    H1649388   4.636   2.182   6.122
  132DIO    H1749389   4.775   2.119   6.036
  132DIO    H1849390   4.765   2.319   5.880
  132DIO    H1949391   4.635   2.386   5.981
  132DIO    H2049392   4.795   2.361   6.050
  133DIO     F149393   3.800   4.213   8.728
  133DIO     C149394   3.877   4.147   8.816
  133DIO     C249395   4.021   4.149   8.799
  133DIO     C349396   4.110   4.075   8.892
  133DIO     C449397   4.045   4.002   9.003
  133DIO     C549398   3.900   4.002   9.017
  133DIO     F249399   3.845   3.937   9.122
  133DIO     C649400   3.817   4.074   8.925
  133DIO     F349401   3.683   4.072   8.939
  133DIO     C749402   4.257   4.075   8.876
  133DIO     C849403   4.334   3.949   8.876
  133DIO     C949404   4.478   3.948   8.860
  133DIO    C1049405   4.551   4.074   8.855
  133DIO    C1149406   4.478   4.200   8.847
  133DIO    C1249407   4.334   4.199   8.860
  133DIO     F449408   4.269   4.318   8.857
  133DIO     O149409   4.683   4.066   8.816
  133DIO    C1349410   4.778   4.154   8.869
  133DIO     O249411   4.779   4.228   8.971
  133DIO    C1449412   4.907   4.146   8.800
  133DIO    C1549413   4.973   4.016   8.774
  133DIO     F549414   4.910   3.901   8.805
  133DIO    C1649415   5.104   4.006   8.711
  133DIO    C1749416   5.180   4.126   8.678
  133DIO    C1849417   5.111   4.254   8.687
  133DIO    C1949418   4.979   4.264   8.748
  133DIO     F649419   4.917   4.384   8.740
  133DIO    C2049420   5.320   4.118   8.624
  133DIO     O349421   5.390   3.999   8.663
  133DIO    C2149422   5.434   4.003   8.799
  133DIO    C2249423   5.523   4.124   8.824
  133DIO    C2349424   5.442   4.247   8.783
  133DIO     O449425   5.398   4.236   8.648
  133DIO    C2449426   5.655   4.119   8.745
  133DIO    C2549427   5.746   3.999   8.774
  133DIO    C2649428   5.785   3.985   8.920
  133DIO     H149429   4.064   4.205   8.717
  133DIO     H249430   4.105   3.954   9.079
  133DIO     H349431   4.282   3.854   8.882
  133DIO     H449432   4.533   3.856   8.852
  133DIO     H549433   4.533   4.292   8.837
  133DIO     H649434   5.142   3.908   8.687
  133DIO     H749435   5.154   4.344   8.644
  133DIO     H849436   5.311   4.111   8.515
  133DIO     H949437   5.347   4.004   8.865
  133DIO    H1049438   5.487   3.909   8.819
  133DIO    H1149439   5.545   4.131   8.931
  133DIO    H1249440   5.503   4.338   8.791
  133DIO    H1349441   5.356   4.261   8.849
  133DIO    H1449442   5.636   4.121   8.637
  133DIO    H1549443   5.712   4.211   8.767
  133DIO    H1649444   5.699   3.907   8.739
  133DIO    H1749445   5.838   4.011   8.715
  133DIO    H1849446   5.828   4.077   8.959
  133DIO    H1949447   5.698   3.959   8.982
  133DIO    H2049448   5.858   3.905   8.932
  134DIO     F149449   8.013   2.247   6.187
  134DIO     C149450   8.091   2.223   6.080
  134DIO     C249451   8.235   2.235   6.092
  134DIO     C349452   8.324   2.211   5.976
  134DIO     C449453   8.258   2.172   5.849
  134DIO     C549454   8.114   2.161   5.839
  134DIO     F249455   8.058   2.122   5.723
  134DIO     C649456   8.030   2.186   5.954
  134DIO     F349457   7.896   2.176   5.943
  134DIO     C749458   8.470   2.223   5.986
  134DIO     C849459   8.547   2.304   5.889
  134DIO     C949460   8.692   2.316   5.899
  134DIO    C1049461   8.764   2.240   5.999
  134DIO    C1149462   8.692   2.165   6.100
  134DIO    C1249463   8.548   2.156   6.092
  134DIO     F449464   8.483   2.082   6.184
  134DIO     O149465   8.897   2.274   6.017
  134DIO    C1349466   8.991   2.177   6.051
  134DIO     O249467   8.992   2.052   6.043
  134DIO    C1449468   9.120   2.236   6.089
  134DIO    C1549469   9.187   2.339   6.006
  134DIO     F549470   9.124   2.389   5.898
  134DIO    C1649471   9.317   2.393   6.038
  134DIO    C1749472   9.393   2.341   6.152
  134DIO    C1849473   9.324   2.253   6.245
  134DIO    C1949474   9.193   2.200   6.213
  134DIO     F649475   9.130   2.130   6.310
  134DIO    C2049476   9.534   2.389   6.180
  134DIO     O349477   9.604   2.435   6.064
  134DIO    C2149478   9.647   2.328   5.980
  134DIO    C2249479   9.736   2.231   6.057
  134DIO    C2349480   9.655   2.184   6.178
  134DIO     O449481   9.611   2.295   6.255
  134DIO    C2449482   9.869   2.295   6.104
  134DIO    C2549483   9.960   2.350   5.993
  134DIO    C2649484   9.998   2.246   5.888
  134DIO     H149485   8.277   2.261   6.188
  134DIO     H249486   8.319   2.144   5.763
  134DIO     H349487   8.496   2.360   5.812
  134DIO     H449488   8.747   2.381   5.833
  134DIO     H549489   8.746   2.113   6.178
  134DIO     H649490   9.355   2.475   5.978
  134DIO     H749491   9.367   2.229   6.341
  134DIO     H849492   9.524   2.477   6.244
  134DIO     H949493   9.561   2.276   5.938
  134DIO    H1049494   9.700   2.372   5.895
  134DIO    H1149495   9.759   2.145   5.994
  134DIO    H1249496   9.716   2.120   6.242
  134DIO    H1349497   9.569   2.124   6.146
  134DIO    H1449498   9.849   2.376   6.174
  134DIO    H1549499   9.925   2.219   6.160
  134DIO    H1649500   9.912   2.435   5.944
  134DIO    H1749501  10.051   2.388   6.040
  134DIO    H1849502  10.042   2.157   5.934
  134DIO    H1949503   9.911   2.215   5.829
  134DIO    H2049504  10.072   2.289   5.819
  135DIO     F149505   0.188   9.159   5.772
  135DIO     C149506   0.266   9.142   5.664
  135DIO     C249507   0.410   9.153   5.677
  135DIO     C349508   0.499   9.137   5.559
  135DIO     C449509   0.433   9.108   5.430
  135DIO     C549510   0.289   9.098   5.419
  135DIO     F249511   0.233   9.068   5.300
  135DIO     C649512   0.205   9.114   5.536
  135DIO     F349513   0.071   9.106   5.524
  135DIO     C749514   0.645   9.149   5.570
  135DIO     C849515   0.722   9.237   5.480
  135DIO     C949516   0.867   9.248   5.490
  135DIO    C1049517   0.939   9.165   5.584
  135DIO    C1149518   0.867   9.083   5.680
  135DIO    C1249519   0.723   9.074   5.671
  135DIO     F449520   0.658   8.994   5.758
  135DIO     O149521   1.072   9.198   5.605
  135DIO    C1349522   1.166   9.099   5.632
  135DIO     O249523   1.167   8.974   5.615
  135DIO    C1449524   1.295   9.154   5.674
  135DIO    C1549525   1.362   9.263   5.599
  135DIO     F549526   1.299   9.321   5.494
  135DIO    C1649527   1.492   9.315   5.635
  135DIO    C1749528   1.568   9.255   5.744
  135DIO    C1849529   1.499   9.160   5.830
  135DIO    C1949530   1.368   9.109   5.795
  135DIO     F649531   1.305   9.032   5.887
  135DIO    C2049532   1.709   9.300   5.776
  135DIO     O349533   1.779   9.355   5.663
  135DIO    C2149534   1.822   9.255   5.572
  135DIO    C2249535   1.911   9.152   5.642
  135DIO    C2349536   1.830   9.096   5.759
  135DIO     O449537   1.786   9.201   5.844
  135DIO    C2449538   2.044   9.212   5.693
  135DIO    C2549539   2.135   9.275   5.587
  135DIO    C2649540   2.173   9.180   5.475
  135DIO     H149541   0.452   9.173   5.774
  135DIO     H249542   0.494   9.086   5.342
  135DIO     H349543   0.671   9.298   5.407
  135DIO     H449544   0.922   9.318   5.429
  135DIO     H549545   0.921   9.025   5.753
  135DIO     H649546   1.530   9.401   5.581
  135DIO     H749547   1.542   9.129   5.925
  135DIO     H849548   1.699   9.383   5.847
  135DIO     H949549   1.736   9.206   5.526
  135DIO    H1049550   1.875   9.305   5.490
  135DIO    H1149551   1.934   9.070   5.572
  135DIO    H1249552   1.891   9.028   5.818
  135DIO    H1349553   1.744   9.038   5.723
  135DIO    H1449554   2.024   9.288   5.770
  135DIO    H1549555   2.100   9.132   5.743
  135DIO    H1649556   2.087   9.364   5.544
  135DIO    H1749557   2.226   9.310   5.636
  135DIO    H1849558   2.217   9.088   5.514
  135DIO    H1949559   2.086   9.153   5.413
  135DIO    H2049560   2.247   9.227   5.409
  136DIO     F149561   4.939   2.043   1.681
  136DIO     C149562   5.016   1.948   1.625
  136DIO     C249563   5.160   1.965   1.625
  136DIO     C349564   5.249   1.865   1.563
  136DIO     C449565   5.184   1.746   1.503
  136DIO     C549566   5.039   1.732   1.504
  136DIO     F249567   4.984   1.620   1.452
  136DIO     C649568   4.956   1.832   1.565
  136DIO     F349569   4.822   1.818   1.565
  136DIO     C749570   5.396   1.881   1.561
  136DIO     C849571   5.473   1.866   1.435
  136DIO     C949572   5.617   1.881   1.433
  136DIO    C1049573   5.690   1.901   1.557
  136DIO    C1149574   5.617   1.924   1.681
  136DIO    C1249575   5.473   1.911   1.682
  136DIO     F449576   5.408   1.927   1.800
  136DIO     O149577   5.822   1.938   1.545
  136DIO    C1349578   5.917   1.897   1.639
  136DIO     O249579   5.918   1.804   1.724
  136DIO    C1449580   6.046   1.964   1.622
  136DIO    C1549581   6.112   1.975   1.490
  136DIO     F549582   6.049   1.931   1.379
  136DIO    C1649583   6.243   2.036   1.473
  136DIO    C1749584   6.319   2.082   1.589
  136DIO    C1849585   6.250   2.088   1.717
  136DIO    C1949586   6.118   2.029   1.734
  136DIO     F649587   6.056   2.051   1.852
  136DIO    C2049588   6.459   2.135   1.574
  136DIO     O349589   6.529   2.083   1.461
  136DIO    C2149590   6.573   1.949   1.480
  136DIO    C2249591   6.662   1.938   1.603
  136DIO    C2349592   6.581   1.993   1.721
  136DIO     O449593   6.537   2.125   1.694
  136DIO    C2449594   6.794   2.015   1.590
  136DIO    C2549595   6.885   1.973   1.474
  136DIO    C2649596   6.924   1.826   1.476
  136DIO     H149597   5.203   2.053   1.672
  136DIO     H249598   5.244   1.665   1.464
  136DIO     H349599   5.421   1.849   1.342
  136DIO     H449600   5.672   1.879   1.340
  136DIO     H549601   5.672   1.944   1.772
  136DIO     H649602   6.281   2.049   1.373
  136DIO     H749603   6.293   2.142   1.801
  136DIO     H849604   6.450   2.243   1.555
  136DIO     H949605   6.486   1.883   1.489
  136DIO    H1049606   6.626   1.917   1.389
  136DIO    H1149607   6.684   1.832   1.623
  136DIO    H1249608   6.642   1.996   1.812
  136DIO    H1349609   6.495   1.928   1.743
  136DIO    H1449610   6.775   2.123   1.579
  136DIO    H1549611   6.851   2.004   1.683
  136DIO    H1649612   6.838   1.997   1.378
  136DIO    H1749613   6.977   2.033   1.478
  136DIO    H1849614   6.967   1.798   1.573
  136DIO    H1949615   6.837   1.762   1.458
  136DIO    H2049616   6.997   1.805   1.398
  137DIO     F149617   7.822   4.535   3.529
  137DIO     C149618   7.900   4.456   3.605
  137DIO     C249619   8.044   4.460   3.589
  137DIO     C349620   8.133   4.373   3.670
  137DIO     C449621   8.067   4.284   3.768
  137DIO     C549622   7.923   4.282   3.783
  137DIO     F249623   7.868   4.202   3.877
  137DIO     C649624   7.839   4.367   3.702
  137DIO     F349625   7.706   4.363   3.716
  137DIO     C749626   8.279   4.375   3.654
  137DIO     C849627   8.356   4.251   3.635
  137DIO     C949628   8.501   4.253   3.620
  137DIO    C1049629   8.574   4.378   3.633
  137DIO    C1149630   8.501   4.503   3.644
  137DIO    C1249631   8.357   4.501   3.657
  137DIO     F449632   8.292   4.618   3.672
  137DIO     O149633   8.706   4.376   3.594
  137DIO    C1349634   8.800   4.455   3.659
  137DIO     O249635   8.801   4.513   3.771
  137DIO    C1449636   8.929   4.457   3.589
  137DIO    C1549637   8.996   4.333   3.544
  137DIO     F549638   8.933   4.214   3.558
  137DIO    C1649639   9.127   4.332   3.481
  137DIO    C1749640   9.202   4.456   3.467
  137DIO    C1849641   9.134   4.581   3.495
  137DIO    C1949642   9.002   4.582   3.556
  137DIO     F649643   8.939   4.701   3.566
  137DIO    C2049644   9.343   4.456   3.412
  137DIO     O349645   9.413   4.332   3.432
  137DIO    C2149646   9.456   4.316   3.567
  137DIO    C2249647   9.545   4.432   3.610
  137DIO    C2349648   9.465   4.560   3.588
  137DIO     O449649   9.420   4.569   3.453
  137DIO    C2449650   9.678   4.439   3.531
  137DIO    C2549651   9.769   4.316   3.542
  137DIO    C2649652   9.807   4.280   3.684
  137DIO     H149653   8.087   4.528   3.516
  137DIO     H249654   8.128   4.226   3.837
  137DIO     H349655   8.305   4.156   3.627
  137DIO     H449656   8.556   4.162   3.598
  137DIO     H549657   8.556   4.596   3.649
  137DIO     H649658   9.165   4.238   3.442
  137DIO     H749659   9.176   4.676   3.465
  137DIO     H849660   9.333   4.465   3.303
  137DIO     H949661   9.370   4.307   3.633
  137DIO    H1049662   9.509   4.220   3.573
  137DIO    H1149663   9.568   4.422   3.717
  137DIO    H1249664   9.526   4.648   3.609
  137DIO    H1349665   9.378   4.564   3.656
  137DIO    H1449666   9.658   4.457   3.425
  137DIO    H1549667   9.735   4.526   3.567
  137DIO    H1649668   9.721   4.230   3.494
  137DIO    H1749669   9.861   4.336   3.485
  137DIO    H1849670   9.851   4.365   3.737
  137DIO    H1949671   9.721   4.245   3.742
  137DIO    H2049672   9.881   4.199   3.684
  138DIO     F149673   8.011   4.244   2.255
  138DIO     C149674   8.089   4.143   2.212
  138DIO     C249675   8.233   4.160   2.210
  138DIO     C349676   8.322   4.052   2.161
  138DIO     C449677   8.256   3.926   2.118
  138DIO     C549678   8.112   3.912   2.121
  138DIO     F249679   8.057   3.795   2.085
  138DIO     C649680   8.028   4.020   2.168
  138DIO     F349681   7.894   4.006   2.170
  138DIO     C749682   8.468   4.068   2.157
  138DIO     C849683   8.545   4.036   2.035
  138DIO     C949684   8.690   4.051   2.031
  138DIO    C1049685   8.763   4.087   2.151
  138DIO    C1149686   8.690   4.126   2.271
  138DIO    C1249687   8.546   4.114   2.274
  138DIO     F449688   8.481   4.145   2.388
  138DIO     O149689   8.895   4.123   2.134
  138DIO    C1349690   8.989   4.094   2.232
  138DIO     O249691   8.990   4.013   2.329
  138DIO    C1449692   9.118   4.159   2.207
  138DIO    C1549693   9.185   4.152   2.075
  138DIO     F549694   9.122   4.093   1.971
  138DIO    C1649695   9.315   4.210   2.050
  138DIO    C1749696   9.391   4.271   2.159
  138DIO    C1849697   9.322   4.294   2.285
  138DIO    C1949698   9.191   4.238   2.309
  138DIO     F649699   9.128   4.275   2.423
  138DIO    C2049700   9.532   4.322   2.137
  138DIO     O349701   9.602   4.255   2.031
  138DIO    C2149702   9.645   4.124   2.068
  138DIO    C2249703   9.734   4.130   2.192
  138DIO    C2349704   9.653   4.200   2.301
  138DIO     O449705   9.609   4.328   2.257
  138DIO    C2449706   9.867   4.205   2.168
  138DIO    C2549707   9.958   4.147   2.059
  138DIO    C2649708   9.996   4.002   2.081
  138DIO     H149709   8.276   4.253   2.245
  138DIO     H249710   8.317   3.841   2.091
  138DIO     H349711   8.494   4.007   1.944
  138DIO     H449712   8.745   4.036   1.939
  138DIO     H549713   8.744   4.158   2.359
  138DIO     H649714   9.354   4.209   1.949
  138DIO     H749715   9.365   4.358   2.361
  138DIO     H849716   9.522   4.426   2.103
  138DIO     H949717   9.559   4.060   2.086
  138DIO    H1049718   9.698   4.081   1.983
  138DIO    H1149719   9.757   4.028   2.225
  138DIO    H1249720   9.715   4.215   2.391
  138DIO    H1349721   9.567   4.139   2.331
  138DIO    H1449722   9.847   4.310   2.144
  138DIO    H1549723   9.923   4.206   2.262
  138DIO    H1649724   9.910   4.158   1.961
  138DIO    H1749725  10.049   4.208   2.055
  138DIO    H1849726  10.040   3.987   2.180
  138DIO    H1949727   9.910   3.936   2.071
  138DIO    H2049728  10.070   3.971   2.006
  139DIO     F149729   6.727   9.679   5.439
  139DIO     C149730   6.805   9.715   5.335
  139DIO     C249731   6.949   9.718   5.351
  139DIO     C349732   7.037   9.759   5.240
  139DIO     C449733   6.972   9.794   5.112
  139DIO     C549734   6.828   9.790   5.098
  139DIO     F249735   6.772   9.818   4.978
  139DIO     C649736   6.744   9.750   5.208
  139DIO     F349737   6.610   9.747   5.194
  139DIO     C749738   7.184   9.764   5.255
  139DIO     C849739   7.261   9.884   5.216
  139DIO     C949740   7.406   9.889   5.230
  139DIO    C1049741   7.478   9.772   5.275
  139DIO    C1149742   7.406   9.655   5.321
  139DIO    C1249743   7.262   9.651   5.309
  139DIO     F449744   7.197   9.539   5.348
  139DIO     O149745   7.610   9.791   5.309
  139DIO    C1349746   7.705   9.691   5.287
  139DIO     O249747   7.706   9.589   5.213
  139DIO    C1449748   7.834   9.721   5.350
  139DIO    C1549749   7.900   9.852   5.334
  139DIO     F549750   7.838   9.952   5.268
  139DIO    C1649751   8.031   9.881   5.390
  139DIO    C1749752   8.107   9.777   5.459
  139DIO    C1849753   8.038   9.652   5.490
  139DIO    C1949754   7.907   9.624   5.436
  139DIO     F649755   7.844   9.513   5.481
  139DIO    C2049756   8.248   9.802   5.508
  139DIO     O349757   8.317   9.903   5.434
  139DIO    C2149758   8.361   9.857   5.306
  139DIO    C2249759   8.450   9.734   5.320
  139DIO    C2349760   8.369   9.629   5.397
  139DIO     O449761   8.325   9.682   5.522
  139DIO    C2449762   8.583   9.763   5.393
  139DIO    C2549763   8.673   9.868   5.328
  139DIO    C2649764   8.712   9.836   5.185
  139DIO     H149765   6.991   9.690   5.447
  139DIO     H249766   7.033   9.815   5.025
  139DIO     H349767   7.209   9.972   5.181
  139DIO     H449768   7.461   9.980   5.210
  139DIO     H549769   7.460   9.569   5.360
  139DIO     H649770   8.069   9.982   5.382
  139DIO     H749771   8.081   9.581   5.559
  139DIO     H849772   8.238   9.842   5.609
  139DIO     H949773   8.274   9.835   5.243
  139DIO    H1049774   8.414   9.939   5.257
  139DIO    H1149775   8.472   9.694   5.220
  139DIO    H1249776   8.430   9.541   5.418
  139DIO    H1349777   8.283   9.595   5.338
  139DIO    H1449778   8.563   9.794   5.496
  139DIO    H1549779   8.639   9.669   5.401
  139DIO    H1649780   8.626   9.967   5.333
  139DIO    H1749781   8.765   9.875   5.388
  139DIO    H1849782   8.756   9.736   5.177
  139DIO    H1949783   8.625   9.841   5.118
  139DIO    H2049784   8.785   9.909   5.149
  140DIO     F149785   0.600   3.481   3.736
  140DIO     C149786   0.677   3.458   3.844
  140DIO     C249787   0.821   3.453   3.828
  140DIO     C349788   0.910   3.425   3.943
  140DIO     C449789   0.845   3.405   4.074
  140DIO     C549790   0.700   3.411   4.088
  140DIO     F249791   0.645   3.397   4.210
  140DIO     C649792   0.617   3.438   3.973
  140DIO     F349793   0.483   3.442   3.987
  140DIO     C749794   1.056   3.418   3.928
  140DIO     C849795   1.134   3.303   3.982
  140DIO     C949796   1.278   3.297   3.968
  140DIO    C1049797   1.351   3.408   3.910
  140DIO    C1149798   1.278   3.519   3.850
  140DIO    C1249799   1.134   3.524   3.861
  140DIO     F449800   1.069   3.630   3.809
  140DIO     O149801   1.483   3.385   3.878
  140DIO    C1349802   1.578   3.487   3.889
  140DIO     O249803   1.578   3.597   3.950
  140DIO    C1449804   1.707   3.450   3.829
  140DIO    C1549805   1.773   3.322   3.861
  140DIO     F549806   1.710   3.230   3.938
  140DIO    C1649807   1.904   3.286   3.809
  140DIO    C1749808   1.980   3.381   3.728
  140DIO    C1849809   1.911   3.501   3.682
  140DIO    C1949810   1.779   3.536   3.733
  140DIO     F649811   1.717   3.640   3.675
  140DIO    C2049812   2.120   3.351   3.682
  140DIO     O349813   2.190   3.259   3.768
  140DIO    C2149814   2.234   3.320   3.889
  140DIO    C2249815   2.323   3.441   3.861
  140DIO    C2349816   2.242   3.535   3.772
  140DIO     O449817   2.198   3.468   3.654
  140DIO    C2449818   2.455   3.403   3.791
  140DIO    C2549819   2.546   3.306   3.868
  140DIO    C2649820   2.584   3.355   4.007
  140DIO     H149821   0.864   3.469   3.729
  140DIO     H249822   0.905   3.395   4.164
  140DIO     H349823   1.082   3.220   4.027
  140DIO     H449824   1.333   3.209   3.999
  140DIO     H549825   1.333   3.599   3.802
  140DIO     H649826   1.942   3.187   3.828
  140DIO     H749827   1.954   3.564   3.605
  140DIO     H849828   2.111   3.298   3.586
  140DIO     H949829   2.147   3.349   3.949
  140DIO    H1049830   2.286   3.244   3.947
  140DIO    H1149831   2.345   3.492   3.955
  140DIO    H1249832   2.303   3.620   3.740
  140DIO    H1349833   2.156   3.576   3.826
  140DIO    H1449834   2.435   3.360   3.693
  140DIO    H1549835   2.512   3.496   3.773
  140DIO    H1649836   2.499   3.208   3.876
  140DIO    H1749837   2.638   3.292   3.810
  140DIO    H1849838   2.628   3.455   4.003
  140DIO    H1949839   2.498   3.358   4.074
  140DIO    H2049840   2.658   3.287   4.051
  141DIO     F149841   5.731   8.762   6.023
  141DIO     C149842   5.809   8.722   6.125
  141DIO     C249843   5.953   8.719   6.108
  141DIO     C349844   6.042   8.673   6.218
  141DIO     C449845   5.976   8.633   6.344
  141DIO     C549846   5.832   8.637   6.358
  141DIO     F249847   5.777   8.603   6.477
  141DIO     C649848   5.748   8.681   6.250
  141DIO     F349849   5.615   8.683   6.264
  141DIO     C749850   6.188   8.669   6.202
  141DIO     C849851   6.265   8.547   6.236
  141DIO     C949852   6.410   8.543   6.222
  141DIO    C1049853   6.483   8.662   6.183
  141DIO    C1149854   6.410   8.781   6.141
  141DIO    C1249855   6.266   8.784   6.153
  141DIO     F449856   6.201   8.898   6.119
  141DIO     O149857   6.615   8.645   6.148
  141DIO    C1349858   6.709   8.743   6.174
  141DIO     O249859   6.710   8.842   6.252
  141DIO    C1449860   6.838   8.717   6.110
  141DIO    C1549861   6.905   8.585   6.120
  141DIO     F549862   6.842   8.482   6.181
  141DIO    C1649863   7.036   8.558   6.063
  141DIO    C1749864   7.111   8.665   5.999
  141DIO    C1849865   7.043   8.791   5.972
  141DIO    C1949866   6.911   8.817   6.028
  141DIO     F649867   6.848   8.929   5.988
  141DIO    C2049868   7.252   8.642   5.949
  141DIO     O349869   7.322   8.538   6.018
  141DIO    C2149870   7.365   8.578   6.148
  141DIO    C2249871   7.454   8.702   6.139
  141DIO    C2349872   7.374   8.809   6.066
  141DIO     O449873   7.329   8.762   5.940
  141DIO    C2449874   7.587   8.676   6.065
  141DIO    C2549875   7.678   8.568   6.125
  141DIO    C2649876   7.716   8.594   6.270
  141DIO     H149877   5.996   8.751   6.014
  141DIO     H249878   6.037   8.608   6.431
  141DIO     H349879   6.214   8.458   6.268
  141DIO     H449880   6.465   8.451   6.239
  141DIO     H549881   6.465   8.868   6.106
  141DIO     H649882   7.074   8.457   6.066
  141DIO     H749883   7.085   8.865   5.906
  141DIO     H849884   7.242   8.606   5.846
  141DIO     H949885   7.279   8.598   6.212
  141DIO    H1049886   7.418   8.494   6.193
  141DIO    H1149887   7.477   8.738   6.240
  141DIO    H1249888   7.435   8.899   6.049
  141DIO    H1349889   7.287   8.841   6.127
  141DIO    H1449890   7.567   8.649   5.960
  141DIO    H1549891   7.644   8.770   6.061
  141DIO    H1649892   7.630   8.470   6.116
  141DIO    H1749893   7.770   8.563   6.065
  141DIO    H1849894   7.760   8.694   6.282
  141DIO    H1949895   7.630   8.586   6.336
  141DIO    H2049896   7.790   8.520   6.302
  142DIO     F149897   7.963   1.609   1.406
  142DIO     C149898   8.040   1.718   1.395
  142DIO     C249899   8.184   1.705   1.405
  142DIO     C349900   8.273   1.823   1.396
  142DIO     C449901   8.208   1.954   1.373
  142DIO     C549902   8.063   1.965   1.364
  142DIO     F249903   8.008   2.085   1.339
  142DIO     C649904   7.980   1.848   1.374
  142DIO     F349905   7.846   1.859   1.366
  142DIO     C749906   8.419   1.811   1.407
  142DIO     C849907   8.497   1.897   1.499
  142DIO     C949908   8.641   1.886   1.510
  142DIO    C1049909   8.714   1.797   1.422
  142DIO    C1149910   8.641   1.705   1.335
  142DIO    C1249911   8.497   1.714   1.327
  142DIO     F449912   8.432   1.632   1.242
  142DIO     O149913   8.846   1.774   1.453
  142DIO    C1349914   8.941   1.752   1.354
  142DIO     O249915   8.941   1.776   1.230
  142DIO    C1449916   9.070   1.707   1.407
  142DIO    C1549917   9.136   1.777   1.519
  142DIO     F549918   9.073   1.878   1.582
  142DIO    C1649919   9.267   1.738   1.569
  142DIO    C1749920   9.343   1.632   1.504
  142DIO    C1849921   9.274   1.551   1.404
  142DIO    C1949922   9.142   1.589   1.356
  142DIO     F649923   9.080   1.501   1.274
  142DIO    C2049924   9.483   1.598   1.547
  142DIO     O349925   9.553   1.708   1.607
  142DIO    C2149926   9.597   1.804   1.512
  142DIO    C2249927   9.686   1.740   1.406
  142DIO    C2349928   9.605   1.626   1.344
  142DIO     O449929   9.561   1.535   1.444
  142DIO    C2449930   9.818   1.685   1.463
  142DIO    C2549931   9.909   1.788   1.532
  142DIO    C2649932   9.947   1.905   1.442
  142DIO     H149933   8.227   1.606   1.420
  142DIO     H249934   8.268   2.042   1.356
  142DIO     H349935   8.445   1.967   1.564
  142DIO     H449936   8.696   1.943   1.583
  142DIO     H549937   8.696   1.635   1.274
  142DIO     H649938   9.305   1.788   1.658
  142DIO     H749939   9.317   1.458   1.368
  142DIO     H849940   9.474   1.523   1.626
  142DIO     H949941   9.510   1.852   1.466
  142DIO    H1049942   9.649   1.883   1.566
  142DIO    H1149943   9.708   1.813   1.328
  142DIO    H1249944   9.666   1.570   1.273
  142DIO    H1349945   9.519   1.665   1.289
  142DIO    H1449946   9.798   1.605   1.535
  142DIO    H1549947   9.875   1.639   1.381
  142DIO    H1649948   9.862   1.826   1.623
  142DIO    H1749949  10.001   1.737   1.564
  142DIO    H1849950   9.991   1.871   1.348
  142DIO    H1949951   9.861   1.968   1.419
  142DIO    H2049952  10.021   1.968   1.493
  143DIO     F149953   2.209   5.318   4.918
  143DIO     C149954   2.287   5.427   4.902
  143DIO     C249955   2.431   5.414   4.913
  143DIO     C349956   2.520   5.531   4.899
  143DIO     C449957   2.454   5.662   4.872
  143DIO     C549958   2.310   5.672   4.862
  143DIO     F249959   2.255   5.792   4.833
  143DIO     C649960   2.226   5.556   4.877
  143DIO     F349961   2.093   5.567   4.868
  143DIO     C749962   2.666   5.520   4.911
  143DIO     C849963   2.743   5.610   5.000
  143DIO     C949964   2.888   5.599   5.011
  143DIO    C1049965   2.961   5.506   4.926
  143DIO    C1149966   2.888   5.412   4.843
  143DIO    C1249967   2.744   5.421   4.834
  143DIO     F449968   2.679   5.335   4.752
  143DIO     O149969   3.093   5.485   4.959
  143DIO    C1349970   3.187   5.459   4.860
  143DIO     O249971   3.188   5.479   4.735
  143DIO    C1449972   3.317   5.416   4.915
  143DIO    C1549973   3.383   5.490   5.025
  143DIO     F549974   3.320   5.594   5.084
  143DIO    C1649975   3.514   5.453   5.076
  143DIO    C1749976   3.589   5.345   5.014
  143DIO    C1849977   3.521   5.260   4.917
  143DIO    C1949978   3.389   5.296   4.868
  143DIO     F649979   3.327   5.206   4.789
  143DIO    C2049980   3.730   5.313   5.059
  143DIO     O349981   3.800   5.424   5.115
  143DIO    C2149982   3.844   5.517   5.016
  143DIO    C2249983   3.932   5.449   4.913
  143DIO    C2349984   3.852   5.333   4.855
  143DIO     O449985   3.807   5.246   4.958
  143DIO    C2449986   4.065   5.397   4.972
  143DIO    C2549987   4.156   5.502   5.036
  143DIO    C2649988   4.194   5.616   4.943
  143DIO     H149989   2.474   5.316   4.931
  143DIO     H249990   2.515   5.749   4.852
  143DIO     H349991   2.692   5.682   5.062
  143DIO     H449992   2.943   5.659   5.082
  143DIO     H549993   2.943   5.339   4.784
  143DIO     H649994   3.552   5.506   5.162
  143DIO     H749995   3.564   5.166   4.885
  143DIO     H849996   3.720   5.241   5.141
  143DIO     H949997   3.757   5.564   4.968
  143DIO    H1049998   3.896   5.598   5.068
  143DIO    H1149999   3.955   5.520   4.832
  143DIO    H1250000   3.913   5.274   4.786
  143DIO    H1350001   3.766   5.370   4.798
  143DIO    H1450002   4.045   5.319   5.047
  143DIO    H1550003   4.122   5.348   4.892
  143DIO    H1650004   4.109   5.543   5.126
  143DIO    H1750005   4.248   5.452   5.070
  143DIO    H1850006   4.238   5.577   4.850
  143DIO    H1950007   4.108   5.678   4.917
  143DIO    H2050008   4.268   5.681   4.991
  144DIO     F150009   7.824   7.855   0.586
  144DIO     C150010   7.902   7.965   0.573
  144DIO     C250011   8.046   7.951   0.583
  144DIO     C350012   8.134   8.069   0.573
  144DIO     C450013   8.069   8.200   0.549
  144DIO     C550014   7.925   8.211   0.539
  144DIO     F250015   7.869   8.331   0.513
  144DIO     C650016   7.841   8.094   0.551
  144DIO     F350017   7.707   8.105   0.542
  144DIO     C750018   8.281   8.058   0.584
  144DIO     C850019   8.358   8.145   0.675
  144DIO     C950020   8.503   8.134   0.686
  144DIO    C1050021   8.575   8.043   0.599
  144DIO    C1150022   8.503   7.951   0.514
  144DIO    C1250023   8.359   7.960   0.505
  144DIO     F450024   8.294   7.877   0.421
  144DIO     O150025   8.707   8.021   0.631
  144DIO    C1350026   8.802   7.998   0.531
  144DIO     O250027   8.803   8.020   0.407
  144DIO    C1450028   8.931   7.954   0.585
  144DIO    C1550029   8.997   8.024   0.697
  144DIO     F550030   8.935   8.127   0.759
  144DIO    C1650031   9.128   7.987   0.747
  144DIO    C1750032   9.204   7.880   0.683
  144DIO    C1850033   9.135   7.797   0.584
  144DIO    C1950034   9.004   7.835   0.535
  144DIO     F650035   8.941   7.746   0.455
  144DIO    C2050036   9.345   7.846   0.727
  144DIO     O350037   9.414   7.957   0.786
  144DIO    C2150038   9.458   8.052   0.689
  144DIO    C2250039   9.547   7.986   0.584
  144DIO    C2350040   9.466   7.872   0.523
  144DIO     O450041   9.422   7.782   0.625
  144DIO    C2450042   9.680   7.933   0.642
  144DIO    C2550043   9.770   8.036   0.709
  144DIO    C2650044   9.809   8.152   0.618
  144DIO     H150045   8.088   7.853   0.599
  144DIO     H250046   8.130   8.288   0.530
  144DIO     H350047   8.306   8.215   0.739
  144DIO     H450048   8.558   8.192   0.759
  144DIO     H550049   8.557   7.880   0.453
  144DIO     H650050   9.166   8.037   0.835
  144DIO     H750051   9.178   7.704   0.550
  144DIO     H850052   9.335   7.772   0.807
  144DIO     H950053   9.371   8.099   0.642
  144DIO    H1050054   9.511   8.131   0.742
  144DIO    H1150055   9.569   8.059   0.505
  144DIO    H1250056   9.527   7.815   0.453
  144DIO    H1350057   9.380   7.910   0.467
  144DIO    H1450058   9.660   7.853   0.715
  144DIO    H1550059   9.736   7.885   0.560
  144DIO    H1650060   9.723   8.075   0.800
  144DIO    H1750061   9.862   7.986   0.742
  144DIO    H1850062   9.853   8.116   0.525
  144DIO    H1950063   9.722   8.215   0.594
  144DIO    H2050064   9.882   8.216   0.668
  145DIO     F150065   3.763   4.045   1.860
  145DIO     C150066   3.840   3.945   1.816
  145DIO     C250067   3.985   3.962   1.814
  145DIO     C350068   4.073   3.855   1.763
  145DIO     C450069   4.008   3.730   1.718
  145DIO     C550070   3.864   3.715   1.721
  145DIO     F250071   3.808   3.599   1.682
  145DIO     C650072   3.780   3.822   1.770
  145DIO     F350073   3.646   3.808   1.771
  145DIO     C750074   4.220   3.870   1.760
  145DIO     C850075   4.297   3.841   1.637
  145DIO     C950076   4.442   3.856   1.633
  145DIO    C1050077   4.514   3.890   1.754
  145DIO    C1150078   4.442   3.927   1.874
  145DIO    C1250079   4.298   3.914   1.877
  145DIO     F450080   4.233   3.944   1.992
  145DIO     O150081   4.646   3.926   1.738
  145DIO    C1350082   4.741   3.895   1.835
  145DIO     O250083   4.742   3.813   1.931
  145DIO    C1450084   4.870   3.960   1.811
  145DIO    C1550085   4.936   3.956   1.679
  145DIO     F550086   4.874   3.899   1.574
  145DIO    C1650087   5.067   4.014   1.655
  145DIO    C1750088   5.143   4.074   1.764
  145DIO    C1850089   5.074   4.095   1.891
  145DIO    C1950090   4.942   4.038   1.914
  145DIO     F650091   4.880   4.073   2.029
  145DIO    C2050092   5.284   4.125   1.744
  145DIO     O350093   5.353   4.059   1.637
  145DIO    C2150094   5.397   3.928   1.672
  145DIO    C2250095   5.486   3.932   1.795
  145DIO    C2350096   5.405   4.000   1.906
  145DIO     O450097   5.361   4.129   1.864
  145DIO    C2450098   5.619   4.007   1.773
  145DIO    C2550099   5.709   3.952   1.663
  145DIO    C2650100   5.748   3.806   1.682
  145DIO     H150101   4.027   4.055   1.850
  145DIO     H250102   4.068   3.644   1.689
  145DIO     H350103   4.245   3.813   1.546
  145DIO     H450104   4.497   3.843   1.541
  145DIO     H550105   4.496   3.957   1.963
  145DIO     H650106   5.105   4.015   1.553
  145DIO     H750107   5.117   4.157   1.968
  145DIO     H850108   5.274   4.229   1.712
  145DIO     H950109   5.310   3.864   1.688
  145DIO    H1050110   5.450   3.887   1.585
  145DIO    H1150111   5.508   3.829   1.827
  145DIO    H1250112   5.466   4.013   1.996
  145DIO    H1350113   5.319   3.938   1.935
  145DIO    H1450114   5.599   4.113   1.750
  145DIO    H1550115   5.675   4.007   1.867
  145DIO    H1650116   5.662   3.964   1.565
  145DIO    H1750117   5.801   4.012   1.660
  145DIO    H1850118   5.792   3.789   1.781
  145DIO    H1950119   5.661   3.740   1.671
  145DIO    H2050120   5.821   3.776   1.607
  146DIO     F150121   1.812   8.277   5.758
  146DIO     C150122   1.889   8.196   5.684
  146DIO     C250123   2.033   8.213   5.687
  146DIO     C350124   2.122   8.128   5.605
  146DIO     C450125   2.057   8.024   5.522
  146DIO     C550126   1.912   8.010   5.520
  146DIO     F250127   1.857   7.911   5.446
  146DIO     C650128   1.829   8.095   5.601
  146DIO     F350129   1.695   8.081   5.597
  146DIO     C750130   2.269   8.144   5.606
  146DIO     C850131   2.346   8.156   5.481
  146DIO     C950132   2.490   8.171   5.482
  146DIO    C1050133   2.563   8.164   5.607
  146DIO    C1150134   2.490   8.160   5.733
  146DIO    C1250135   2.346   8.148   5.732
  146DIO     F450136   2.281   8.139   5.850
  146DIO     O150137   2.695   8.203   5.603
  146DIO    C1350138   2.790   8.143   5.686
  146DIO     O250139   2.791   8.035   5.750
  146DIO    C1450140   2.919   8.213   5.684
  146DIO    C1550141   2.985   8.251   5.558
  146DIO     F550142   2.922   8.231   5.440
  146DIO    C1650143   3.116   8.314   5.553
  146DIO    C1750144   3.192   8.335   5.676
  146DIO    C1850145   3.123   8.314   5.803
  146DIO    C1950146   2.991   8.253   5.807
  146DIO     F650147   2.929   8.250   5.927
  146DIO    C2050148   3.332   8.390   5.673
  146DIO     O350149   3.402   8.362   5.551
  146DIO    C2150150   3.446   8.227   5.542
  146DIO    C2250151   3.535   8.190   5.660
  146DIO    C2350152   3.454   8.220   5.787
  146DIO     O450153   3.410   8.355   5.788
  146DIO    C2450154   3.667   8.269   5.663
  146DIO    C2550155   3.758   8.252   5.541
  146DIO    C2650156   3.797   8.108   5.512
  146DIO     H150157   2.076   8.289   5.751
  146DIO     H250158   2.117   7.952   5.467
  146DIO     H350159   2.294   8.158   5.386
  146DIO     H450160   2.545   8.188   5.390
  146DIO     H550161   2.545   8.161   5.827
  146DIO     H650162   3.154   8.347   5.458
  146DIO     H750163   3.166   8.349   5.896
  146DIO     H850164   3.323   8.499   5.676
  146DIO     H950165   3.359   8.160   5.537
  146DIO    H1050166   3.499   8.215   5.447
  146DIO    H1150167   3.557   8.083   5.657
  146DIO    H1250168   3.515   8.203   5.876
  146DIO    H1350169   3.368   8.152   5.794
  146DIO    H1450170   3.648   8.377   5.675
  146DIO    H1550171   3.724   8.238   5.752
  146DIO    H1650172   3.711   8.295   5.452
  146DIO    H1750173   3.850   8.310   5.558
  146DIO    H1850174   3.840   8.060   5.601
  146DIO    H1950175   3.710   8.049   5.481
  146DIO    H2050176   3.870   8.104   5.432
  147DIO     F150177   6.012   7.721   3.779
  147DIO     C150178   6.090   7.614   3.754
  147DIO     C250179   6.234   7.630   3.749
  147DIO     C350180   6.323   7.516   3.720
  147DIO     C450181   6.257   7.384   3.699
  147DIO     C550182   6.113   7.371   3.705
  147DIO     F250183   6.057   7.249   3.689
  147DIO     C650184   6.029   7.485   3.733
  147DIO     F350185   5.895   7.471   3.737
  147DIO     C750186   6.469   7.530   3.714
  147DIO     C850187   6.546   7.478   3.598
  147DIO     C950188   6.691   7.492   3.592
  147DIO    C1050189   6.763   7.549   3.704
  147DIO    C1150190   6.691   7.608   3.815
  147DIO    C1250191   6.547   7.596   3.820
  147DIO     F450192   6.482   7.647   3.927
  147DIO     O150193   6.896   7.581   3.681
  147DIO    C1350194   6.990   7.569   3.783
  147DIO     O250195   6.991   7.507   3.892
  147DIO    C1450196   7.119   7.629   3.747
  147DIO    C1550197   7.186   7.599   3.618
  147DIO     F550198   7.123   7.523   3.526
  147DIO    C1650199   7.316   7.652   3.583
  147DIO    C1750200   7.392   7.731   3.679
  147DIO    C1850201   7.323   7.776   3.800
  147DIO    C1950202   7.192   7.724   3.834
  147DIO     F650203   7.129   7.781   3.939
  147DIO    C2050204   7.533   7.777   3.649
  147DIO     O350205   7.603   7.693   3.557
  147DIO    C2150206   7.646   7.571   3.616
  147DIO    C2250207   7.735   7.597   3.737
  147DIO    C2350208   7.654   7.685   3.832
  147DIO     O450209   7.610   7.804   3.767
  147DIO    C2450210   7.868   7.667   3.700
  147DIO    C2550211   7.959   7.592   3.603
  147DIO    C2650212   7.997   7.452   3.650
  147DIO     H150213   6.276   7.728   3.767
  147DIO     H250214   6.318   7.295   3.687
  147DIO     H350215   6.495   7.434   3.514
  147DIO     H450216   6.746   7.462   3.504
  147DIO     H550217   6.745   7.654   3.896
  147DIO     H650218   7.354   7.633   3.484
  147DIO     H750219   7.366   7.852   3.864
  147DIO     H850220   7.523   7.874   3.598
  147DIO     H950221   7.560   7.510   3.645
  147DIO    H1050222   7.699   7.513   3.539
  147DIO    H1150223   7.758   7.503   3.787
  147DIO    H1250224   7.715   7.716   3.918
  147DIO    H1350225   7.568   7.631   3.873
  147DIO    H1450226   7.848   7.767   3.658
  147DIO    H1550227   7.924   7.685   3.793
  147DIO    H1650228   7.911   7.586   3.504
  147DIO    H1750229   8.050   7.651   3.589
  147DIO    H1850230   8.041   7.455   3.750
  147DIO    H1950231   7.910   7.386   3.651
  147DIO    H2050232   8.071   7.409   3.581
  148DIO     F150233   0.705   1.607   2.658
  148DIO     C150234   0.782   1.574   2.553
  148DIO     C250235   0.926   1.587   2.565
  148DIO     C350236   1.015   1.554   2.451
  148DIO     C450237   0.950   1.506   2.327
  148DIO     C550238   0.805   1.494   2.318
  148DIO     F250239   0.750   1.446   2.205
  148DIO     C650240   0.722   1.528   2.431
  148DIO     F350241   0.588   1.517   2.421
  148DIO     C750242   1.161   1.567   2.460
  148DIO     C850243   1.239   1.640   2.357
  148DIO     C950244   1.383   1.653   2.366
  148DIO    C1050245   1.456   1.584   2.471
  148DIO    C1150246   1.383   1.518   2.578
  148DIO    C1250247   1.239   1.508   2.571
  148DIO     F450248   1.174   1.441   2.668
  148DIO     O150249   1.588   1.620   2.487
  148DIO    C1350250   1.683   1.527   2.528
  148DIO     O250251   1.683   1.401   2.530
  148DIO    C1450252   1.812   1.588   2.562
  148DIO    C1550253   1.878   1.684   2.471
  148DIO     F550254   1.815   1.726   2.359
  148DIO    C1650255   2.009   1.741   2.499
  148DIO    C1750256   2.085   1.698   2.616
  148DIO    C1850257   2.016   1.616   2.715
  148DIO    C1950258   1.884   1.561   2.688
  148DIO     F650259   1.822   1.499   2.790
  148DIO    C2050260   2.225   1.747   2.641
  148DIO     O350261   2.295   1.784   2.521
  148DIO    C2150262   2.339   1.672   2.446
  148DIO    C2250263   2.428   1.581   2.530
  148DIO    C2350264   2.347   1.543   2.654
  148DIO     O450265   2.303   1.659   2.723
  148DIO    C2450266   2.560   1.647   2.572
  148DIO    C2550267   2.651   1.694   2.457
  148DIO    C2650268   2.689   1.583   2.361
  148DIO     H150269   0.969   1.621   2.658
  148DIO     H250270   1.010   1.471   2.244
  148DIO     H350271   1.187   1.690   2.276
  148DIO     H450272   1.438   1.713   2.295
  148DIO     H550273   1.438   1.472   2.659
  148DIO     H650274   2.047   1.818   2.433
  148DIO     H750275   2.059   1.600   2.813
  148DIO     H850276   2.216   1.840   2.698
  148DIO     H950277   2.252   1.616   2.408
  148DIO    H1050278   2.391   1.709   2.358
  148DIO    H1150279   2.450   1.490   2.473
  148DIO    H1250280   2.408   1.484   2.723
  148DIO    H1350281   2.261   1.480   2.627
  148DIO    H1450282   2.540   1.734   2.636
  148DIO    H1550283   2.617   1.576   2.633
  148DIO    H1650284   2.604   1.776   2.402
  148DIO    H1750285   2.743   1.735   2.501
  148DIO    H1850286   2.733   1.498   2.413
  148DIO    H1950287   2.603   1.548   2.304
  148DIO    H2050288   2.763   1.620   2.289
  149DIO     F150289   3.055   9.373   1.744
  149DIO     C150290   3.133   9.283   1.680
  149DIO     C250291   3.277   9.300   1.682
  149DIO     C350292   3.365   9.206   1.611
  149DIO     C450293   3.300   9.092   1.541
  149DIO     C550294   3.156   9.078   1.541
  149DIO     F250295   3.100   8.971   1.480
  149DIO     C650296   3.072   9.172   1.611
  149DIO     F350297   2.938   9.158   1.609
  149DIO     C750298   3.512   9.222   1.610
  149DIO     C850299   3.589   9.218   1.484
  149DIO     C950300   3.734   9.233   1.483
  149DIO    C1050301   3.806   9.242   1.609
  149DIO    C1150302   3.734   9.254   1.734
  149DIO    C1250303   3.590   9.241   1.734
  149DIO     F450304   3.525   9.247   1.852
  149DIO     O150305   3.938   9.280   1.600
  149DIO    C1350306   4.033   9.231   1.689
  149DIO     O250307   4.034   9.131   1.766
  149DIO    C1450308   4.162   9.300   1.679
  149DIO    C1550309   4.228   9.322   1.549
  149DIO     F550310   4.166   9.287   1.434
  149DIO    C1650311   4.359   9.384   1.537
  149DIO    C1750312   4.435   9.420   1.656
  149DIO    C1850313   4.366   9.415   1.784
  149DIO    C1950314   4.235   9.354   1.796
  149DIO     F650315   4.172   9.366   1.915
  149DIO    C2050316   4.576   9.474   1.646
  149DIO     O350317   4.645   9.432   1.528
  149DIO    C2150318   4.689   9.296   1.536
  149DIO    C2250319   4.778   9.275   1.658
  149DIO    C2350320   4.697   9.319   1.780
  149DIO     O450321   4.653   9.454   1.765
  149DIO    C2450322   4.911   9.353   1.651
  149DIO    C2550323   5.001   9.321   1.532
  149DIO    C2650324   5.040   9.174   1.521
  149DIO     H150325   3.319   9.384   1.736
  149DIO     H250326   3.361   9.015   1.495
  149DIO     H350327   3.537   9.209   1.389
  149DIO     H450328   3.789   9.239   1.390
  149DIO     H550329   3.788   9.266   1.827
  149DIO     H650330   4.397   9.405   1.438
  149DIO     H750331   4.409   9.461   1.873
  149DIO     H850332   4.566   9.583   1.636
  149DIO     H950333   4.602   9.230   1.539
  149DIO    H1050334   4.742   9.273   1.443
  149DIO    H1150335   4.800   9.168   1.668
  149DIO    H1250336   4.758   9.314   1.870
  149DIO    H1350337   4.611   9.253   1.796
  149DIO    H1450338   4.891   9.461   1.650
  149DIO    H1550339   4.967   9.334   1.743
  149DIO    H1650340   4.954   9.353   1.438
  149DIO    H1750341   5.093   9.381   1.541
  149DIO    H1850342   5.084   9.138   1.615
  149DIO    H1950343   4.953   9.112   1.497
  149DIO    H2050344   5.113   9.160   1.442
  150DIO     F150345   2.939   9.126   7.932
  150DIO     C150346   3.016   9.173   7.833
  150DIO     C250347   3.161   9.174   7.850
  150DIO     C350348   3.249   9.227   7.744
  150DIO     C450349   3.184   9.275   7.620
  150DIO     C550350   3.040   9.273   7.605
  150DIO     F250351   2.984   9.313   7.489
  150DIO     C650352   2.956   9.221   7.711
  150DIO     F350353   2.822   9.220   7.697
  150DIO     C750354   3.396   9.230   7.759
  150DIO     C850355   3.473   9.354   7.733
  150DIO     C950356   3.618   9.357   7.748
  150DIO    C1050357   3.690   9.236   7.779
  150DIO    C1150358   3.618   9.115   7.813
  150DIO    C1250359   3.474   9.112   7.801
  150DIO     F450360   3.409   8.997   7.828
  150DIO     O150361   3.822   9.251   7.815
  150DIO    C1350362   3.917   9.154   7.782
  150DIO     O250363   3.918   9.061   7.698
  150DIO    C1450364   4.046   9.177   7.848
  150DIO    C1550365   4.112   9.309   7.847
  150DIO     F550366   4.050   9.416   7.792
  150DIO    C1650367   4.243   9.332   7.905
  150DIO    C1750368   4.319   9.221   7.963
  150DIO    C1850369   4.250   9.094   7.981
  150DIO    C1950370   4.118   9.072   7.923
  150DIO     F650371   4.056   8.957   7.957
  150DIO    C2050372   4.460   9.241   8.014
  150DIO     O350373   4.529   9.349   7.951
  150DIO    C2150374   4.573   9.317   7.819
  150DIO    C2250375   4.662   9.193   7.820
  150DIO    C2350376   4.581   9.081   7.886
  150DIO     O450377   4.537   9.121   8.015
  150DIO    C2450378   4.795   9.214   7.896
  150DIO    C2550379   4.885   9.326   7.843
  150DIO    C2650380   4.924   9.309   7.697
  150DIO     H150381   3.203   9.136   7.942
  150DIO     H250382   3.244   9.306   7.535
  150DIO     H350383   3.421   9.445   7.707
  150DIO     H450384   3.673   9.450   7.736
  150DIO     H550385   3.672   9.026   7.842
  150DIO     H650386   4.281   9.433   7.908
  150DIO     H750387   4.293   9.016   8.042
  150DIO     H850388   4.450   9.271   8.119
  150DIO     H950389   4.486   9.302   7.754
  150DIO    H1050390   4.626   9.404   7.779
  150DIO    H1150391   4.684   9.164   7.717
  150DIO    H1250392   4.642   8.991   7.897
  150DIO    H1350393   4.495   9.054   7.824
  150DIO    H1450394   4.775   9.235   8.002
  150DIO    H1550395   4.851   9.120   7.893
  150DIO    H1650396   4.838   9.423   7.857
  150DIO    H1750397   4.977   9.327   7.903
  150DIO    H1850398   4.968   9.211   7.678
  150DIO    H1950399   4.837   9.322   7.631
  150DIO    H2050400   4.997   9.385   7.669
  151DIO     F150401   1.455   1.256   6.191
  151DIO     C150402   1.533   1.151   6.160
  151DIO     C250403   1.677   1.167   6.156
  151DIO     C350404   1.766   1.054   6.120
  151DIO     C450405   1.700   0.924   6.092
  151DIO     C550406   1.556   0.911   6.097
  151DIO     F250407   1.500   0.790   6.074
  151DIO     C650408   1.472   1.023   6.131
  151DIO     F350409   1.338   1.009   6.134
  151DIO     C750410   1.912   1.069   6.114
  151DIO     C850411   1.989   1.024   5.997
  151DIO     C950412   2.134   1.038   5.991
  151DIO    C1050413   2.206   1.088   6.106
  151DIO    C1150414   2.134   1.140   6.221
  151DIO    C1250415   1.990   1.129   6.225
  151DIO     F450416   1.925   1.173   6.335
  151DIO     O150417   2.339   1.121   6.085
  151DIO    C1350418   2.433   1.104   6.186
  151DIO     O250419   2.434   1.035   6.292
  151DIO    C1450420   2.562   1.165   6.153
  151DIO    C1550421   2.629   1.143   6.023
  151DIO     F550422   2.566   1.073   5.926
  151DIO    C1650423   2.759   1.198   5.991
  151DIO    C1750424   2.835   1.272   6.092
  151DIO    C1850425   2.766   1.309   6.215
  151DIO    C1950426   2.635   1.256   6.245
  151DIO     F650427   2.572   1.307   6.354
  151DIO    C2050428   2.976   1.319   6.064
  151DIO     O350429   3.046   1.240   5.967
  151DIO    C2150430   3.089   1.115   6.019
  151DIO    C2250431   3.178   1.135   6.142
  151DIO    C2350432   3.097   1.217   6.242
  151DIO     O450433   3.053   1.339   6.183
  151DIO    C2450434   3.311   1.207   6.109
  151DIO    C2550435   3.402   1.137   6.007
  151DIO    C2650436   3.440   0.995   6.046
  151DIO     H150437   1.719   1.264   6.179
  151DIO     H250438   1.761   0.836   6.075
  151DIO     H350439   1.938   0.984   5.910
  151DIO     H450440   2.189   1.013   5.901
  151DIO     H550441   2.188   1.183   6.304
  151DIO     H650442   2.797   1.185   5.891
  151DIO     H750443   2.809   1.382   6.283
  151DIO     H850444   2.966   1.418   6.019
  151DIO     H950445   3.003   1.053   6.044
  151DIO    H1050446   3.142   1.062   5.940
  151DIO    H1150447   3.201   1.037   6.186
  151DIO    H1250448   3.158   1.243   6.329
  151DIO    H1350449   3.011   1.160   6.279
  151DIO    H1450450   3.291   1.308   6.073
  151DIO    H1550451   3.367   1.219   6.203
  151DIO    H1650452   3.354   1.136   5.909
  151DIO    H1750453   3.493   1.196   5.997
  151DIO    H1850454   3.484   0.992   6.146
  151DIO    H1950455   3.353   0.928   6.044
  151DIO    H2050456   3.514   0.955   5.976
  152DIO     F150457   2.047   1.844   6.088
  152DIO     C150458   2.124   1.734   6.095
  152DIO     C250459   2.269   1.748   6.086
  152DIO     C350460   2.357   1.630   6.090
  152DIO     C450461   2.292   1.498   6.108
  152DIO     C550462   2.148   1.487   6.117
  152DIO     F250463   2.092   1.366   6.137
  152DIO     C650464   2.064   1.604   6.111
  152DIO     F350465   1.930   1.592   6.119
  152DIO     C750466   2.504   1.642   6.080
  152DIO     C850467   2.581   1.559   5.984
  152DIO     C950468   2.726   1.571   5.974
  152DIO    C1050469   2.798   1.657   6.066
  152DIO    C1150470   2.726   1.745   6.156
  152DIO    C1250471   2.582   1.735   6.164
  152DIO     F450472   2.517   1.814   6.252
  152DIO     O150473   2.930   1.681   6.035
  152DIO    C1350474   3.025   1.699   6.135
  152DIO     O250475   3.026   1.670   6.258
  152DIO    C1450476   3.154   1.746   6.084
  152DIO    C1550477   3.220   1.681   5.969
  152DIO     F550478   3.158   1.582   5.902
  152DIO    C1650479   3.351   1.721   5.921
  152DIO    C1750480   3.427   1.825   5.990
  152DIO    C1850481   3.358   1.902   6.093
  152DIO    C1950482   3.226   1.862   6.140
  152DIO     F650483   3.164   1.947   6.225
  152DIO    C2050484   3.568   1.860   5.948
  152DIO     O350485   3.637   1.753   5.884
  152DIO    C2150486   3.681   1.653   5.975
  152DIO    C2250487   3.770   1.713   6.083
  152DIO    C2350488   3.689   1.825   6.150
  152DIO     O450489   3.645   1.920   6.053
  152DIO    C2450490   3.903   1.770   6.028
  152DIO    C2550491   3.993   1.670   5.956
  152DIO    C2650492   4.032   1.549   6.041
  152DIO     H150493   2.311   1.847   6.075
  152DIO     H250494   2.352   1.409   6.122
  152DIO     H350495   2.529   1.493   5.917
  152DIO     H450496   2.781   1.517   5.899
  152DIO     H550497   2.780   1.813   6.220
  152DIO     H650498   3.389   1.675   5.830
  152DIO     H750499   3.401   1.993   6.132
  152DIO     H850500   3.558   1.938   5.872
  152DIO     H950501   3.594   1.603   6.019
  152DIO    H1050502   3.734   1.576   5.918
  152DIO    H1150503   3.792   1.637   6.158
  152DIO    H1250504   3.750   1.878   6.223
  152DIO    H1350505   3.603   1.784   6.204
  152DIO    H1450506   3.883   1.853   5.959
  152DIO    H1550507   3.959   1.813   6.112
  152DIO    H1650508   3.946   1.635   5.863
  152DIO    H1750509   4.085   1.722   5.926
  152DIO    H1850510   4.076   1.580   6.136
  152DIO    H1950511   3.945   1.486   6.062
  152DIO    H2050512   4.105   1.488   5.988
  153DIO     F150513   5.586   0.637   9.638
  153DIO     C150514   5.663   0.745   9.663
  153DIO     C250515   5.808   0.728   9.668
  153DIO     C350516   5.896   0.843   9.698
  153DIO     C450517   5.831   0.974   9.720
  153DIO     C550518   5.687   0.988   9.714
  153DIO     F250519   5.631   1.109   9.731
  153DIO     C650520   5.603   0.874   9.686
  153DIO     F350521   5.469   0.887   9.682
  153DIO     C750522   6.043   0.828   9.705
  153DIO     C850523   6.120   0.880   9.820
  153DIO     C950524   6.265   0.866   9.827
  153DIO    C1050525   6.337   0.810   9.714
  153DIO    C1150526   6.265   0.752   9.602
  153DIO    C1250527   6.121   0.763   9.597
  153DIO     F450528   6.056   0.713   9.490
  153DIO     O150529   6.469   0.778   9.737
  153DIO    C1350530   6.564   0.790   9.635
  153DIO     O250531   6.565   0.853   9.526
  153DIO    C1450532   6.693   0.730   9.671
  153DIO    C1550533   6.759   0.759   9.800
  153DIO     F550534   6.697   0.834   9.893
  153DIO    C1650535   6.890   0.706   9.834
  153DIO    C1750536   6.966   0.627   9.738
  153DIO    C1850537   6.897   0.583   9.617
  153DIO    C1950538   6.765   0.635   9.583
  153DIO     F650539   6.703   0.579   9.478
  153DIO    C2050540   7.107   0.581   9.767
  153DIO     O350541   7.176   0.665   9.860
  153DIO    C2150542   7.220   0.787   9.802
  153DIO    C2250543   7.309   0.761   9.681
  153DIO    C2350544   7.228   0.674   9.585
  153DIO     O450545   7.184   0.555   9.650
  153DIO    C2450546   7.442   0.691   9.717
  153DIO    C2550547   7.532   0.766   9.815
  153DIO    C2650548   7.571   0.906   9.769
  153DIO     H150549   5.850   0.630   9.650
  153DIO     H250550   5.891   1.063   9.732
  153DIO     H350551   6.068   0.924   9.904
  153DIO     H450552   6.320   0.896   9.915
  153DIO     H550553   6.319   0.705   9.521
  153DIO     H650554   6.928   0.724   9.934
  153DIO     H750555   6.940   0.507   9.553
  153DIO     H850556   7.097   0.484   9.818
  153DIO     H950557   7.133   0.848   9.774
  153DIO    H1050558   7.273   0.844   9.879
  153DIO    H1150559   7.331   0.856   9.631
  153DIO    H1250560   7.289   0.644   9.499
  153DIO    H1350561   7.142   0.729   9.545
  153DIO    H1450562   7.422   0.592   9.759
  153DIO    H1550563   7.498   0.674   9.624
  153DIO    H1650564   7.485   0.772   9.914
  153DIO    H1750565   7.624   0.707   9.829
  153DIO    H1850566   7.615   0.904   9.669
  153DIO    H1950567   7.484   0.973   9.768
  153DIO    H2050568   7.644   0.949   9.838
  154DIO     F150569   6.654   6.736   4.646
  154DIO     C150570   6.731   6.670   4.558
  154DIO     C250571   6.876   6.686   4.564
  154DIO     C350572   6.964   6.617   4.468
  154DIO     C450573   6.899   6.531   4.367
  154DIO     C550574   6.755   6.517   4.362
  154DIO     F250575   6.699   6.434   4.272
  154DIO     C650576   6.671   6.586   4.458
  154DIO     F350577   6.537   6.573   4.452
  154DIO     C750578   7.111   6.633   4.472
  154DIO     C850579   7.188   6.668   4.351
  154DIO     C950580   7.333   6.682   4.355
  154DIO    C1050581   7.405   6.653   4.477
  154DIO    C1150582   7.333   6.626   4.600
  154DIO    C1250583   7.189   6.614   4.596
  154DIO     F450584   7.124   6.583   4.710
  154DIO     O150585   7.537   6.692   4.480
  154DIO    C1350586   7.632   6.617   4.550
  154DIO     O250587   7.633   6.499   4.593
  154DIO    C1450588   7.761   6.686   4.561
  154DIO    C1550589   7.827   6.747   4.444
  154DIO     F550590   7.765   6.749   4.324
  154DIO    C1650591   7.958   6.809   4.451
  154DIO    C1750592   8.034   6.808   4.576
  154DIO    C1850593   7.965   6.764   4.697
  154DIO    C1950594   7.833   6.703   4.689
  154DIO     F650595   7.771   6.678   4.806
  154DIO    C2050596   8.175   6.862   4.583
  154DIO     O350597   8.244   6.858   4.458
  154DIO    C2150598   8.288   6.727   4.424
  154DIO    C2250599   8.377   6.669   4.533
  154DIO    C2350600   8.296   6.674   4.663
  154DIO     O450601   8.252   6.807   4.690
  154DIO    C2450602   8.510   6.746   4.551
  154DIO    C2550603   8.600   6.751   4.428
  154DIO    C2650604   8.639   6.615   4.373
  154DIO     H150605   6.918   6.749   4.641
  154DIO     H250606   6.959   6.470   4.300
  154DIO     H350607   7.136   6.688   4.258
  154DIO     H450608   7.388   6.716   4.268
  154DIO     H550609   7.387   6.609   4.692
  154DIO     H650610   7.996   6.860   4.364
  154DIO     H750611   8.008   6.781   4.795
  154DIO     H850612   8.165   6.969   4.607
  154DIO     H950613   8.201   6.662   4.407
  154DIO    H1050614   8.341   6.733   4.328
  154DIO    H1150615   8.399   6.564   4.510
  154DIO    H1250616   8.357   6.642   4.748
  154DIO    H1350617   8.210   6.606   4.658
  154DIO    H1450618   8.490   6.849   4.583
  154DIO    H1550619   8.566   6.699   4.633
  154DIO    H1650620   8.553   6.810   4.348
  154DIO    H1750621   8.692   6.805   4.455
  154DIO    H1850622   8.683   6.552   4.451
  154DIO    H1950623   8.552   6.562   4.331
  154DIO    H2050624   8.712   6.626   4.293
  155DIO     F150625   5.112   9.572   4.153
  155DIO     C150626   5.190   9.668   4.099
  155DIO     C250627   5.334   9.659   4.113
  155DIO     C350628   5.423   9.764   4.058
  155DIO     C450629   5.357   9.875   3.985
  155DIO     C550630   5.213   9.881   3.972
  155DIO     F250631   5.157   9.982   3.902
  155DIO     C650632   5.129   9.778   4.028
  155DIO     F350633   4.995   9.785   4.016
  155DIO     C750634   5.569   9.757   4.073
  155DIO     C850635   5.646   9.873   4.123
  155DIO     C950636   5.791   9.867   4.137
  155DIO    C1050637   5.863   9.750   4.092
  155DIO    C1150638   5.791   9.632   4.049
  155DIO    C1250639   5.647   9.637   4.038
  155DIO     F450640   5.582   9.528   3.992
  155DIO     O150641   5.996   9.742   4.130
  155DIO    C1350642   6.090   9.682   4.047
  155DIO     O250643   6.091   9.655   3.924
  155DIO    C1450644   6.219   9.662   4.114
  155DIO    C1550645   6.285   9.771   4.190
  155DIO     F550646   6.223   9.889   4.207
  155DIO    C1650647   6.416   9.755   4.251
  155DIO    C1750648   6.492   9.632   4.233
  155DIO    C1850649   6.423   9.518   4.174
  155DIO    C1950650   6.292   9.533   4.114
  155DIO     F650651   6.229   9.420   4.074
  155DIO    C2050652   6.633   9.618   4.286
  155DIO     O350653   6.702   9.742   4.298
  155DIO    C2150654   6.746   9.793   4.172
  155DIO    C2250655   6.835   9.692   4.100
  155DIO    C2350656   6.754   9.563   4.089
  155DIO     O450657   6.710   9.519   4.217
  155DIO    C2450658   6.968   9.665   4.175
  155DIO    C2550659   7.058   9.786   4.196
  155DIO    C2650660   7.097   9.858   4.068
  155DIO     H150661   5.376   9.574   4.166
  155DIO     H250662   5.418   9.949   3.934
  155DIO     H350663   5.595   9.963   4.155
  155DIO     H450664   5.846   9.949   4.182
  155DIO     H550665   5.845   9.543   4.021
  155DIO     H650666   6.454   9.836   4.312
  155DIO     H750667   6.466   9.418   4.178
  155DIO     H850668   6.623   9.581   4.389
  155DIO     H950669   6.659   9.818   4.110
  155DIO    H1050670   6.799   9.887   4.190
  155DIO    H1150671   6.858   9.728   4.000
  155DIO    H1250672   6.815   9.483   4.046
  155DIO    H1350673   6.668   9.576   4.022
  155DIO    H1450674   6.948   9.620   4.273
  155DIO    H1550675   7.024   9.590   4.118
  155DIO    H1650676   7.011   9.857   4.265
  155DIO    H1750677   7.150   9.752   4.246
  155DIO    H1850678   7.141   9.789   3.995
  155DIO    H1950679   7.010   9.906   4.021
  155DIO    H2050680   7.171   9.936   4.089
  156DIO     F150681   4.319   3.410   6.102
  156DIO     C150682   4.397   3.301   6.094
  156DIO     C250683   4.541   3.316   6.087
  156DIO     C350684   4.630   3.198   6.076
  156DIO     C450685   4.564   3.065   6.076
  156DIO     C550686   4.420   3.052   6.084
  156DIO     F250687   4.365   2.930   6.088
  156DIO     C650688   4.336   3.170   6.093
  156DIO     F350689   4.202   3.157   6.099
  156DIO     C750690   4.776   3.211   6.067
  156DIO     C850691   4.853   3.142   5.962
  156DIO     C950692   4.998   3.154   5.953
  156DIO    C1050693   5.071   3.228   6.055
  156DIO    C1150694   4.998   3.304   6.156
  156DIO    C1250695   4.854   3.293   6.162
  156DIO     F450696   4.789   3.360   6.260
  156DIO     O150697   5.203   3.256   6.028
  156DIO    C1350698   5.297   3.260   6.130
  156DIO     O250699   5.298   3.216   6.247
  156DIO    C1450700   5.426   3.314   6.085
  156DIO    C1550701   5.493   3.264   5.962
  156DIO     F550702   5.430   3.174   5.883
  156DIO    C1650703   5.623   3.310   5.919
  156DIO    C1750704   5.699   3.404   6.002
  156DIO    C1850705   5.630   3.467   6.114
  156DIO    C1950706   5.499   3.422   6.155
  156DIO     F650707   5.436   3.494   6.250
  156DIO    C2050708   5.840   3.445   5.965
  156DIO     O350709   5.910   3.347   5.887
  156DIO    C2150710   5.953   3.236   5.965
  156DIO    C2250711   6.042   3.281   6.080
  156DIO    C2350712   5.961   3.383   6.160
  156DIO     O450713   5.917   3.490   6.077
  156DIO    C2450714   6.175   3.344   6.033
  156DIO    C2550715   6.266   3.254   5.948
  156DIO    C2650716   6.304   3.124   6.017
  156DIO     H150717   4.584   3.415   6.089
  156DIO     H250718   4.625   2.975   6.079
  156DIO     H350719   4.802   3.084   5.886
  156DIO     H450720   5.053   3.110   5.871
  156DIO     H550721   5.052   3.363   6.228
  156DIO     H650722   5.662   3.276   5.824
  156DIO     H750723   5.673   3.553   6.165
  156DIO     H850724   5.830   3.532   5.899
  156DIO     H950725   5.867   3.180   6.002
  156DIO    H1050726   6.006   3.167   5.898
  156DIO    H1150727   6.065   3.196   6.144
  156DIO    H1250728   6.023   3.427   6.240
  156DIO    H1350729   5.875   3.335   6.208
  156DIO    H1450730   6.155   3.436   5.975
  156DIO    H1550731   6.231   3.376   6.121
  156DIO    H1650732   6.218   3.233   5.852
  156DIO    H1750733   6.357   3.310   5.925
  156DIO    H1850734   6.348   3.143   6.115
  156DIO    H1950735   6.218   3.058   6.029
  156DIO    H2050736   6.378   3.070   5.956
  157DIO     F150737   6.911   6.468   9.385
  157DIO     C150738   6.988   6.370   9.434
  157DIO     C250739   7.132   6.379   9.420
  157DIO     C350740   7.221   6.272   9.470
  157DIO     C450741   7.156   6.157   9.536
  157DIO     C550742   7.011   6.150   9.549
  157DIO     F250743   6.956   6.046   9.614
  157DIO     C650744   6.928   6.256   9.499
  157DIO     F350745   6.794   6.248   9.510
  157DIO     C750746   7.367   6.279   9.455
  157DIO     C850747   7.445   6.166   9.399
  157DIO     C950748   7.589   6.172   9.385
  157DIO    C1050749   7.662   6.287   9.436
  157DIO    C1150750   7.589   6.403   9.485
  157DIO    C1250751   7.445   6.397   9.496
  157DIO     F450752   7.380   6.504   9.547
  157DIO     O150753   7.794   6.297   9.398
  157DIO    C1350754   7.889   6.353   9.484
  157DIO     O250755   7.889   6.373   9.609
  157DIO    C1450756   8.018   6.376   9.419
  157DIO    C1550757   8.084   6.272   9.338
  157DIO     F550758   8.021   6.155   9.314
  157DIO    C1650759   8.215   6.290   9.278
  157DIO    C1750760   8.291   6.413   9.302
  157DIO    C1850761   8.222   6.524   9.367
  157DIO    C1950762   8.090   6.505   9.426
  157DIO     F650763   8.028   6.616   9.472
  157DIO    C2050764   8.431   6.429   9.249
  157DIO     O350765   8.501   6.306   9.231
  157DIO    C2150766   8.545   6.248   9.354
  157DIO    C2250767   8.634   6.346   9.431
  157DIO    C2350768   8.553   6.474   9.449
  157DIO     O450769   8.509   6.524   9.323
  157DIO    C2450770   8.766   6.377   9.358
  157DIO    C2550771   8.857   6.256   9.330
  157DIO    C2650772   8.895   6.178   9.455
  157DIO     H150773   7.175   6.466   9.371
  157DIO     H250774   7.216   6.080   9.584
  157DIO     H350775   7.393   6.078   9.362
  157DIO     H450776   7.644   6.093   9.336
  157DIO     H550777   7.644   6.490   9.518
  157DIO     H650778   8.253   6.213   9.212
  157DIO     H750779   8.265   6.623   9.368
  157DIO     H850780   8.422   6.472   9.149
  157DIO     H950781   8.458   6.220   9.414
  157DIO    H1050782   8.597   6.156   9.331
  157DIO    H1150783   8.656   6.304   9.530
  157DIO    H1250784   8.614   6.552   9.496
  157DIO    H1350785   8.467   6.457   9.515
  157DIO    H1450786   8.746   6.427   9.263
  157DIO    H1550787   8.823   6.449   9.419
  157DIO    H1650788   8.810   6.189   9.258
  157DIO    H1750789   8.949   6.293   9.283
  157DIO    H1850790   8.939   6.244   9.531
  157DIO    H1950791   8.809   6.127   9.499
  157DIO    H2050792   8.969   6.101   9.430
  158DIO     F150793   7.411   5.420   5.158
  158DIO     C150794   7.489   5.312   5.139
  158DIO     C250795   7.633   5.328   5.133
  158DIO     C350796   7.721   5.211   5.111
  158DIO     C450797   7.656   5.079   5.097
  158DIO     C550798   7.512   5.066   5.104
  158DIO     F250799   7.456   4.943   5.095
  158DIO     C650800   7.428   5.182   5.125
  158DIO     F350801   7.294   5.168   5.130
  158DIO     C750802   7.868   5.226   5.103
  158DIO     C850803   7.945   5.167   4.991
  158DIO     C950804   8.090   5.180   4.984
  158DIO    C1050805   8.162   5.243   5.093
  158DIO    C1150806   8.090   5.309   5.201
  158DIO    C1250807   7.946   5.297   5.206
  158DIO     F450808   7.881   5.354   5.310
  158DIO     O150809   8.294   5.274   5.068
  158DIO    C1350810   8.389   5.268   5.170
  158DIO     O250811   8.390   5.212   5.283
  158DIO    C1450812   8.518   5.326   5.131
  158DIO    C1550813   8.584   5.289   5.004
  158DIO     F550814   8.522   5.208   4.916
  158DIO    C1650815   8.715   5.339   4.966
  158DIO    C1750816   8.791   5.424   5.058
  158DIO    C1850817   8.722   5.476   5.175
  158DIO    C1950818   8.591   5.426   5.212
  158DIO     F650819   8.528   5.489   5.314
  158DIO    C2050820   8.932   5.468   5.025
  158DIO     O350821   9.001   5.379   4.938
  158DIO    C2150822   9.045   5.260   5.004
  158DIO    C2250823   9.134   5.294   5.123
  158DIO    C2350824   9.053   5.387   5.213
  158DIO     O450825   9.009   5.502   5.141
  158DIO    C2450826   9.267   5.362   5.082
  158DIO    C2550827   9.357   5.281   4.989
  158DIO    C2650828   9.396   5.144   5.044
  158DIO     H150829   7.675   5.427   5.145
  158DIO     H250830   7.717   4.989   5.091
  158DIO     H350831   7.893   5.118   4.910
  158DIO     H450832   8.145   5.145   4.898
  158DIO     H550833   8.144   5.360   5.278
  158DIO     H650834   8.753   5.315   4.868
  158DIO     H750835   8.765   5.555   5.235
  158DIO     H850836   8.922   5.562   4.968
  158DIO     H950837   8.958   5.202   5.036
  158DIO    H1050838   9.098   5.199   4.930
  158DIO    H1150839   9.156   5.202   5.179
  158DIO    H1250840   9.114   5.422   5.297
  158DIO    H1350841   8.967   5.335   5.256
  158DIO    H1450842   9.247   5.458   5.034
  158DIO    H1550843   9.323   5.384   5.174
  158DIO    H1650844   9.310   5.269   4.891
  158DIO    H1750845   9.449   5.338   4.972
  158DIO    H1850846   9.440   5.153   5.144
  158DIO    H1950847   9.309   5.077   5.050
  158DIO    H2050848   9.469   5.097   4.978
  159DIO     F150849   1.614   5.168   7.165
  159DIO     C150850   1.692   5.070   7.116
  159DIO     C250851   1.836   5.087   7.115
  159DIO     C350852   1.925   4.982   7.060
  159DIO     C450853   1.859   4.859   7.009
  159DIO     C550854   1.715   4.844   7.012
  159DIO     F250855   1.659   4.729   6.969
  159DIO     C650856   1.631   4.949   7.065
  159DIO     F350857   1.497   4.935   7.066
  159DIO     C750858   2.071   4.997   7.057
  159DIO     C850859   2.148   4.973   6.933
  159DIO     C950860   2.293   4.988   6.930
  159DIO    C1050861   2.365   5.018   7.052
  159DIO    C1150862   2.293   5.049   7.174
  159DIO    C1250863   2.149   5.037   7.176
  159DIO     F450864   2.084   5.061   7.291
  159DIO     O150865   2.498   5.054   7.037
  159DIO    C1350866   2.592   5.019   7.133
  159DIO     O250867   2.593   4.933   7.225
  159DIO    C1450868   2.721   5.086   7.112
  159DIO    C1550869   2.787   5.086   6.980
  159DIO     F550870   2.725   5.034   6.872
  159DIO    C1650871   2.918   5.145   6.958
  159DIO    C1750872   2.994   5.201   7.070
  159DIO    C1850873   2.925   5.216   7.197
  159DIO    C1950874   2.794   5.159   7.218
  159DIO     F650875   2.731   5.190   7.334
  159DIO    C2050876   3.135   5.252   7.051
  159DIO     O350877   3.204   5.191   6.942
  159DIO    C2150878   3.248   5.059   6.971
  159DIO    C2250879   3.337   5.057   7.095
  159DIO    C2350880   3.256   5.121   7.208
  159DIO     O450881   3.212   5.252   7.171
  159DIO    C2450882   3.470   5.134   7.075
  159DIO    C2550883   3.560   5.083   6.963
  159DIO    C2650884   3.599   4.936   6.977
  159DIO     H150885   1.878   5.178   7.155
  159DIO     H250886   1.920   4.775   6.977
  159DIO     H350887   2.097   4.949   6.841
  159DIO     H450888   2.348   4.979   6.837
  159DIO     H550889   2.347   5.076   7.263
  159DIO     H650890   2.956   5.151   6.857
  159DIO     H750891   2.968   5.276   7.277
  159DIO     H850892   3.125   5.358   7.023
  159DIO     H950893   3.161   4.994   6.985
  159DIO    H1050894   3.301   5.021   6.883
  159DIO    H1150895   3.360   4.954   7.122
  159DIO    H1250896   3.317   5.131   7.298
  159DIO    H1350897   3.170   5.059   7.235
  159DIO    H1450898   3.450   5.240   7.057
  159DIO    H1550899   3.526   5.129   7.170
  159DIO    H1650900   3.513   5.099   6.866
  159DIO    H1750901   3.652   5.143   6.963
  159DIO    H1850902   3.643   4.916   7.075
  159DIO    H1950903   3.512   4.871   6.963
  159DIO    H2050904   3.673   4.910   6.900
  160DIO     F150905   6.303   6.852   8.697
  160DIO     C150906   6.381   6.874   8.589
  160DIO     C250907   6.525   6.880   8.605
  160DIO     C350908   6.614   6.906   8.490
  160DIO     C450909   6.548   6.924   8.358
  160DIO     C550910   6.404   6.918   8.345
  160DIO     F250911   6.348   6.931   8.222
  160DIO     C650912   6.320   6.893   8.459
  160DIO     F350913   6.186   6.889   8.446
  160DIO     C750914   6.760   6.913   8.504
  160DIO     C850915   6.837   7.027   8.449
  160DIO     C950916   6.982   7.034   8.463
  160DIO    C1050917   7.054   6.923   8.522
  160DIO    C1150918   6.982   6.813   8.584
  160DIO    C1250919   6.838   6.808   8.572
  160DIO     F450920   6.773   6.702   8.626
  160DIO     O150921   7.187   6.947   8.554
  160DIO    C1350922   7.281   6.845   8.545
  160DIO     O250923   7.282   6.734   8.485
  160DIO    C1450924   7.410   6.882   8.603
  160DIO    C1550925   7.476   7.010   8.571
  160DIO     F550926   7.414   7.101   8.492
  160DIO    C1650927   7.607   7.046   8.622
  160DIO    C1750928   7.683   6.952   8.704
  160DIO    C1850929   7.614   6.833   8.752
  160DIO    C1950930   7.483   6.798   8.701
  160DIO     F650931   7.420   6.694   8.760
  160DIO    C2050932   7.824   6.983   8.749
  160DIO     O350933   7.893   7.074   8.663
  160DIO    C2150934   7.937   7.012   8.542
  160DIO    C2250935   8.026   6.891   8.572
  160DIO    C2350936   7.945   6.798   8.662
  160DIO     O450937   7.901   6.867   8.779
  160DIO    C2450938   8.159   6.930   8.641
  160DIO    C2550939   8.249   7.025   8.563
  160DIO    C2650940   8.288   6.975   8.425
  160DIO     H150941   6.567   6.864   8.704
  160DIO     H250942   6.609   6.934   8.268
  160DIO     H350943   6.786   7.110   8.403
  160DIO     H450944   7.037   7.121   8.430
  160DIO     H550945   7.036   6.734   8.633
  160DIO     H650946   7.645   7.146   8.601
  160DIO     H750947   7.657   6.771   8.829
  160DIO     H850948   7.814   7.037   8.844
  160DIO     H950949   7.850   6.982   8.482
  160DIO    H1050950   7.990   7.087   8.483
  160DIO    H1150951   8.049   6.839   8.478
  160DIO    H1250952   8.006   6.713   8.694
  160DIO    H1350953   7.859   6.757   8.608
  160DIO    H1450954   8.139   6.974   8.739
  160DIO    H1550955   8.215   6.838   8.660
  160DIO    H1650956   8.202   7.124   8.554
  160DIO    H1750957   8.341   7.041   8.621
  160DIO    H1850958   8.332   6.875   8.430
  160DIO    H1950959   8.201   6.972   8.358
  160DIO    H2050960   8.362   7.042   8.380
  161DIO     F150961   2.724   8.339   9.730
  161DIO     C150962   2.802   8.443   9.766
  161DIO     C250963   2.946   8.427   9.769
  161DIO     C350964   3.035   8.537   9.811
  161DIO     C450965   2.969   8.666   9.847
  161DIO     C550966   2.825   8.680   9.842
  161DIO     F250967   2.769   8.799   9.871
  161DIO     C650968   2.741   8.569   9.802
  161DIO     F350969   2.607   8.583   9.800
  161DIO     C750970   3.181   8.522   9.816
  161DIO     C850971   3.258   8.561   9.936
  161DIO     C950972   3.403   8.547   9.941
  161DIO    C1050973   3.475   8.503   9.823
  161DIO    C1150974   3.403   8.457   9.706
  161DIO    C1250975   3.259   8.469   9.703
  161DIO     F450976   3.194   8.430   9.591
  161DIO     O150977   3.608   8.469   9.843
  161DIO    C1350978   3.702   8.491   9.743
  161DIO     O250979   3.703   8.566   9.641
  161DIO    C1450980   3.831   8.428   9.772
  161DIO    C1550981   3.897   8.443   9.903
  161DIO     F550982   3.835   8.508  10.004
  161DIO    C1650983   4.028   8.387   9.932
  161DIO    C1750984   4.104   8.319   9.828
  161DIO    C1850985   4.035   8.288   9.703
  161DIO    C1950986   3.904   8.343   9.675
  161DIO     F650987   3.841   8.298   9.564
  161DIO    C2050988   4.245   8.270   9.853
  161DIO     O350989   4.314   8.344   9.954
  161DIO    C2150990   4.358   8.471   9.909
  161DIO    C2250991   4.447   8.458   9.785
  161DIO    C2350992   4.366   8.381   9.681
  161DIO     O450993   4.322   8.256   9.733
  161DIO    C2450994   4.580   8.384   9.814
  161DIO    C2550995   4.670   8.449   9.919
  161DIO    C2650996   4.709   8.592   9.888
  161DIO     H150997   2.988   8.331   9.741
  161DIO     H250998   3.030   8.753   9.868
  161DIO     H350999   3.207   8.596  10.025
  161DIO     H451000   3.458   8.567  10.032
  161DIO     H551001   3.457   8.419   9.621
  161DIO     H651002   4.066   8.394  10.033
  161DIO     H751003   4.078   8.219   9.631
  161DIO     H851004   4.235   8.168   9.893
  161DIO     H951005   4.271   8.534   9.887
  161DIO    H1051006   4.411   8.520   9.991
  161DIO    H1151007   4.470   8.558   9.746
  161DIO    H1251008   4.427   8.361   9.592
  161DIO    H1351009   4.280   8.440   9.647
  161DIO    H1451010   4.560   8.281   9.845
  161DIO    H1551011   4.636   8.378   9.720
  161DIO    H1651012   4.623   8.444  10.018
  161DIO    H1751013   4.762   8.389   9.927
  161DIO    H1851014   4.753   8.601   9.788
  161DIO    H1951015   4.622   8.659   9.894
  161DIO    H2051016   4.783   8.628   9.961
  162DIO     F151017   1.051   1.889   3.945
  162DIO     C151018   1.129   1.783   3.913
  162DIO     C251019   1.273   1.800   3.909
  162DIO     C351020   1.362   1.687   3.872
  162DIO     C451021   1.296   1.558   3.842
  162DIO     C551022   1.152   1.544   3.847
  162DIO     F251023   1.096   1.424   3.823
  162DIO     C651024   1.068   1.656   3.883
  162DIO     F351025   0.934   1.642   3.886
  162DIO     C751026   1.508   1.702   3.867
  162DIO     C851027   1.585   1.659   3.748
  162DIO     C951028   1.730   1.673   3.743
  162DIO    C1051029   1.802   1.721   3.858
  162DIO    C1151030   1.730   1.772   3.974
  162DIO    C1251031   1.586   1.760   3.978
  162DIO     F451032   1.521   1.803   4.088
  162DIO     O151033   1.935   1.755   3.838
  162DIO    C1351034   2.029   1.736   3.939
  162DIO     O251035   2.030   1.666   4.043
  162DIO    C1451036   2.158   1.798   3.907
  162DIO    C1551037   2.224   1.778   3.776
  162DIO     F551038   2.162   1.708   3.679
  162DIO    C1651039   2.355   1.832   3.745
  162DIO    C1751040   2.431   1.905   3.846
  162DIO    C1851041   2.362   1.941   3.970
  162DIO    C1951042   2.231   1.887   4.000
  162DIO     F651043   2.168   1.937   4.109
  162DIO    C2051044   2.572   1.953   3.820
  162DIO     O351045   2.641   1.875   3.722
  162DIO    C2151046   2.685   1.749   3.772
  162DIO    C2251047   2.774   1.768   3.895
  162DIO    C2351048   2.693   1.849   3.996
  162DIO     O451049   2.649   1.972   3.939
  162DIO    C2451050   2.907   1.840   3.863
  162DIO    C2551051   2.997   1.771   3.760
  162DIO    C2651052   3.036   1.629   3.797
  162DIO     H151053   1.315   1.896   3.934
  162DIO     H251054   1.357   1.470   3.824
  162DIO     H351055   1.534   1.620   3.661
  162DIO     H451056   1.785   1.649   3.653
  162DIO     H551057   1.784   1.814   4.057
  162DIO     H651058   2.393   1.821   3.644
  162DIO     H751059   2.405   2.013   4.039
  162DIO     H851060   2.562   2.053   3.775
  162DIO     H951061   2.598   1.687   3.796
  162DIO    H1051062   2.738   1.698   3.692
  162DIO    H1151063   2.797   1.670   3.938
  162DIO    H1251064   2.754   1.873   4.083
  162DIO    H1351065   2.607   1.791   4.032
  162DIO    H1451066   2.887   1.942   3.828
  162DIO    H1551067   2.963   1.851   3.957
  162DIO    H1651068   2.950   1.772   3.661
  162DIO    H1751069   3.089   1.831   3.750
  162DIO    H1851070   3.080   1.625   3.898
  162DIO    H1951071   2.949   1.562   3.795
  162DIO    H2051072   3.110   1.591   3.726
  163DIO     F151073   5.384   2.647   1.907
  163DIO     C151074   5.462   2.743   1.854
  163DIO     C251075   5.606   2.734   1.868
  163DIO     C351076   5.695   2.840   1.814
  163DIO     C451077   5.629   2.952   1.743
  163DIO     C551078   5.485   2.958   1.730
  163DIO     F251079   5.430   3.060   1.660
  163DIO     C651080   5.401   2.854   1.784
  163DIO     F351081   5.267   2.862   1.772
  163DIO     C751082   5.841   2.833   1.829
  163DIO     C851083   5.918   2.948   1.880
  163DIO     C951084   6.063   2.942   1.894
  163DIO    C1051085   6.136   2.826   1.848
  163DIO    C1151086   6.063   2.708   1.804
  163DIO    C1251087   5.919   2.713   1.792
  163DIO     F451088   5.854   2.604   1.746
  163DIO     O151089   6.268   2.817   1.886
  163DIO    C1351090   6.362   2.758   1.803
  163DIO     O251091   6.363   2.732   1.679
  163DIO    C1451092   6.491   2.737   1.869
  163DIO    C1551093   6.558   2.845   1.946
  163DIO     F551094   6.495   2.963   1.965
  163DIO    C1651095   6.688   2.829   2.007
  163DIO    C1751096   6.764   2.706   1.988
  163DIO    C1851097   6.695   2.592   1.927
  163DIO    C1951098   6.564   2.608   1.868
  163DIO     F651099   6.501   2.496   1.826
  163DIO    C2051100   6.905   2.691   2.041
  163DIO     O351101   6.975   2.816   2.054
  163DIO    C2151102   7.018   2.868   1.929
  163DIO    C2251103   7.107   2.767   1.856
  163DIO    C2351104   7.026   2.638   1.843
  163DIO     O451105   6.982   2.593   1.971
  163DIO    C2451106   7.240   2.739   1.930
  163DIO    C2551107   7.331   2.861   1.952
  163DIO    C2651108   7.369   2.934   1.825
  163DIO     H151109   5.649   2.649   1.920
  163DIO     H251110   5.690   3.026   1.692
  163DIO     H351111   5.867   3.038   1.913
  163DIO     H451112   6.118   3.024   1.940
  163DIO     H551113   6.117   2.619   1.775
  163DIO     H651114   6.727   2.909   2.069
  163DIO     H751115   6.738   2.493   1.930
  163DIO     H851116   6.895   2.653   2.143
  163DIO     H951117   6.932   2.894   1.867
  163DIO    H1051118   7.071   2.961   1.948
  163DIO    H1151119   7.130   2.805   1.755
  163DIO    H1251120   7.088   2.559   1.799
  163DIO    H1351121   6.940   2.652   1.776
  163DIO    H1451122   7.220   2.693   2.027
  163DIO    H1551123   7.296   2.665   1.872
  163DIO    H1651124   7.283   2.931   2.022
  163DIO    H1751125   7.422   2.826   2.002
  163DIO    H1851126   7.413   2.865   1.752
  163DIO    H1951127   7.283   2.983   1.779
  163DIO    H2051128   7.443   3.012   1.847
  164DIO     F151129   0.188   2.115   5.577
  164DIO     C151130   0.266   2.129   5.686
  164DIO     C251131   0.410   2.119   5.673
  164DIO     C351132   0.499   2.131   5.790
  164DIO     C451133   0.433   2.157   5.921
  164DIO     C551134   0.289   2.167   5.932
  164DIO     F251135   0.234   2.194   6.051
  164DIO     C651136   0.205   2.153   5.815
  164DIO     F351137   0.072   2.162   5.826
  164DIO     C751138   0.645   2.120   5.779
  164DIO     C851139   0.722   2.030   5.867
  164DIO     C951140   0.867   2.019   5.857
  164DIO    C1051141   0.940   2.105   5.765
  164DIO    C1151142   0.867   2.189   5.671
  164DIO    C1251143   0.723   2.197   5.680
  164DIO     F451144   0.658   2.280   5.596
  164DIO     O151145   1.072   2.072   5.743
  164DIO    C1351146   1.166   2.172   5.719
  164DIO     O251147   1.167   2.296   5.740
  164DIO    C1451148   1.296   2.117   5.675
  164DIO    C1551149   1.362   2.006   5.747
  164DIO     F551150   1.299   1.946   5.850
  164DIO    C1651151   1.493   1.956   5.710
  164DIO    C1751152   1.568   2.018   5.602
  164DIO    C1851153   1.500   2.116   5.519
  164DIO    C1951154   1.368   2.166   5.555
  164DIO     F651155   1.306   2.245   5.466
  164DIO    C2051156   1.709   1.974   5.570
  164DIO     O351157   1.779   1.917   5.681
  164DIO    C2151158   1.823   2.014   5.775
  164DIO    C2251159   1.911   2.119   5.708
  164DIO    C2351160   1.831   2.178   5.592
  164DIO     O451161   1.786   2.075   5.504
  164DIO    C2451162   2.044   2.060   5.655
  164DIO    C2551163   2.135   1.995   5.759
  164DIO    C2651164   2.173   2.087   5.874
  164DIO     H151165   0.453   2.102   5.574
  164DIO     H251166   0.494   2.176   6.009
  164DIO     H351167   0.671   1.966   5.938
  164DIO     H451168   0.922   1.947   5.916
  164DIO     H551169   0.922   2.248   5.599
  164DIO     H651170   1.531   1.868   5.762
  164DIO     H751171   1.543   2.150   5.425
  164DIO     H851172   1.699   1.893   5.497
  164DIO     H951173   1.736   2.062   5.822
  164DIO    H1051174   1.875   1.962   5.855
  164DIO    H1151175   1.934   2.198   5.779
  164DIO    H1251176   1.892   2.248   5.534
  164DIO    H1351177   1.745   2.234   5.630
  164DIO    H1451178   2.024   1.986   5.576
  164DIO    H1551179   2.101   2.141   5.607
  164DIO    H1651180   2.088   1.904   5.799
  164DIO    H1751181   2.227   1.961   5.709
  164DIO    H1851182   2.217   2.180   5.837
  164DIO    H1951183   2.087   2.112   5.936
  164DIO    H2051184   2.247   2.038   5.938
  165DIO     F151185   5.106   0.858   3.619
  165DIO     C151186   5.183   0.933   3.538
  165DIO     C251187   5.327   0.929   3.555
  165DIO     C351188   5.416   1.012   3.470
  165DIO     C451189   5.351   1.096   3.367
  165DIO     C551190   5.206   1.097   3.352
  165DIO     F251191   5.151   1.172   3.254
  165DIO     C651192   5.123   1.016   3.437
  165DIO     F351193   4.989   1.020   3.423
  165DIO     C751194   5.563   1.010   3.486
  165DIO     C851195   5.640   1.136   3.498
  165DIO     C951196   5.784   1.135   3.513
  165DIO    C1051197   5.857   1.009   3.507
  165DIO    C1151198   5.784   0.884   3.502
  165DIO    C1251199   5.640   0.885   3.490
  165DIO     F451200   5.575   0.767   3.480
  165DIO     O151201   5.989   1.013   3.546
  165DIO    C1351202   6.084   0.931   3.485
  165DIO     O251203   6.085   0.867   3.376
  165DIO    C1451204   6.213   0.932   3.555
  165DIO    C1551205   6.279   1.059   3.593
  165DIO     F551206   6.216   1.177   3.574
  165DIO    C1651207   6.410   1.063   3.656
  165DIO    C1751208   6.486   0.940   3.677
  165DIO    C1851209   6.417   0.813   3.656
  165DIO    C1951210   6.285   0.809   3.594
  165DIO     F651211   6.223   0.690   3.591
  165DIO    C2051212   6.626   0.943   3.732
  165DIO     O351213   6.696   1.065   3.705
  165DIO    C2151214   6.740   1.075   3.570
  165DIO    C2251215   6.829   0.957   3.532
  165DIO    C2351216   6.748   0.830   3.561
  165DIO     O451217   6.704   0.828   3.696
  165DIO    C2451218   6.961   0.953   3.611
  165DIO    C2551219   7.052   1.076   3.595
  165DIO    C2651220   7.091   1.105   3.450
  165DIO     H151221   5.370   0.865   3.631
  165DIO     H251222   5.411   1.150   3.295
  165DIO     H351223   5.588   1.231   3.501
  165DIO     H451224   5.839   1.226   3.531
  165DIO     H551225   5.839   0.790   3.503
  165DIO     H651226   6.448   1.158   3.690
  165DIO     H751227   6.460   0.720   3.690
  165DIO     H851228   6.617   0.939   3.841
  165DIO     H951229   6.653   1.080   3.503
  165DIO    H1051230   6.793   1.170   3.558
  165DIO    H1151231   6.851   0.960   3.425
  165DIO    H1251232   6.809   0.741   3.545
  165DIO    H1351233   6.662   0.822   3.494
  165DIO    H1451234   6.942   0.941   3.718
  165DIO    H1551235   7.018   0.864   3.580
  165DIO    H1651236   7.005   1.164   3.638
  165DIO    H1751237   7.144   1.059   3.652
  165DIO    H1851238   7.134   1.016   3.403
  165DIO    H1951239   7.004   1.136   3.391
  165DIO    H2051240   7.164   1.185   3.447
  166DIO     F151241   5.784   2.342   4.731
  166DIO     C151242   5.862   2.234   4.749
  166DIO     C251243   6.006   2.247   4.738
  166DIO     C351244   6.095   2.130   4.756
  166DIO     C451245   6.029   2.001   4.787
  166DIO     C551246   5.885   1.990   4.797
  166DIO     F251247   5.829   1.872   4.830
  166DIO     C651248   5.801   2.106   4.779
  166DIO     F351249   5.667   2.095   4.788
  166DIO     C751250   6.241   2.141   4.744
  166DIO     C851251   6.318   2.048   4.658
  166DIO     C951252   6.463   2.059   4.646
  166DIO    C1051253   6.535   2.154   4.728
  166DIO    C1151254   6.463   2.251   4.808
  166DIO    C1251255   6.319   2.243   4.817
  166DIO     F451256   6.254   2.330   4.896
  166DIO     O151257   6.668   2.175   4.695
  166DIO    C1351258   6.762   2.203   4.793
  166DIO     O251259   6.763   2.188   4.918
  166DIO    C1451260   6.891   2.244   4.737
  166DIO    C1551261   6.958   2.167   4.629
  166DIO     F551262   6.895   2.062   4.573
  166DIO    C1651263   7.088   2.202   4.577
  166DIO    C1751264   7.164   2.313   4.635
  166DIO    C1851265   7.095   2.400   4.729
  166DIO    C1951266   6.964   2.366   4.780
  166DIO     F651267   6.901   2.459   4.856
  166DIO    C2051268   7.305   2.344   4.590
  166DIO     O351269   7.375   2.230   4.537
  166DIO    C2151270   7.418   2.140   4.638
  166DIO    C2251271   7.507   2.212   4.740
  166DIO    C2351272   7.426   2.330   4.794
  166DIO     O451273   7.382   2.414   4.688
  166DIO    C2451274   7.640   2.262   4.679
  166DIO    C2551275   7.731   2.155   4.618
  166DIO    C2651276   7.769   2.044   4.715
  166DIO     H151277   6.048   2.344   4.717
  166DIO     H251278   6.090   1.914   4.810
  166DIO     H351279   6.267   1.975   4.598
  166DIO     H451280   6.518   1.997   4.577
  166DIO     H551281   6.517   2.326   4.865
  166DIO     H651282   7.126   2.147   4.492
  166DIO     H751283   7.138   2.495   4.758
  166DIO     H851284   7.295   2.413   4.505
  166DIO     H951285   7.332   2.096   4.688
  166DIO    H1051286   7.471   2.058   4.590
  166DIO    H1151287   7.530   2.144   4.823
  166DIO    H1251288   7.487   2.391   4.861
  166DIO    H1351289   7.340   2.295   4.852
  166DIO    H1451290   7.620   2.337   4.602
  166DIO    H1551291   7.696   2.314   4.758
  166DIO    H1651292   7.683   2.111   4.529
  166DIO    H1751293   7.822   2.203   4.582
  166DIO    H1851294   7.813   2.085   4.806
  166DIO    H1951295   7.682   1.983   4.743
  166DIO    H2051296   7.843   1.978   4.669
  167DIO     F151297   3.811   5.695   9.268
  167DIO     C151298   3.889   5.589   9.237
  167DIO     C251299   4.033   5.606   9.233
  167DIO     C351300   4.122   5.493   9.196
  167DIO     C451301   4.056   5.363   9.167
  167DIO     C551302   3.912   5.350   9.172
  167DIO     F251303   3.856   5.229   9.149
  167DIO     C651304   3.828   5.462   9.207
  167DIO     F351305   3.694   5.448   9.210
  167DIO     C751306   4.268   5.508   9.191
  167DIO     C851307   4.345   5.463   9.073
  167DIO     C951308   4.490   5.477   9.067
  167DIO    C1051309   4.562   5.527   9.182
  167DIO    C1151310   4.490   5.579   9.297
  167DIO    C1251311   4.346   5.567   9.301
  167DIO     F451312   4.281   5.611   9.411
  167DIO     O151313   4.695   5.560   9.162
  167DIO    C1351314   4.789   5.543   9.262
  167DIO     O251315   4.790   5.473   9.368
  167DIO    C1451316   4.918   5.604   9.230
  167DIO    C1551317   4.985   5.583   9.100
  167DIO     F551318   4.922   5.512   9.003
  167DIO    C1651319   5.115   5.637   9.068
  167DIO    C1751320   5.191   5.711   9.169
  167DIO    C1851321   5.122   5.748   9.292
  167DIO    C1951322   4.991   5.694   9.322
  167DIO     F651323   4.928   5.745   9.431
  167DIO    C2051324   5.332   5.758   9.142
  167DIO     O351325   5.402   5.680   9.044
  167DIO    C2151326   5.445   5.554   9.096
  167DIO    C2251327   5.534   5.574   9.218
  167DIO    C2351328   5.453   5.656   9.319
  167DIO     O451329   5.409   5.778   9.261
  167DIO    C2451330   5.667   5.646   9.186
  167DIO    C2551331   5.758   5.576   9.084
  167DIO    C2651332   5.796   5.434   9.122
  167DIO     H151333   4.075   5.703   9.256
  167DIO     H251334   4.117   5.275   9.150
  167DIO     H351335   4.294   5.424   8.986
  167DIO     H451336   4.545   5.452   8.977
  167DIO     H551337   4.544   5.621   9.381
  167DIO     H651338   5.153   5.625   8.967
  167DIO     H751339   5.165   5.820   9.360
  167DIO     H851340   5.322   5.858   9.097
  167DIO     H951341   5.359   5.492   9.121
  167DIO    H1051342   5.498   5.502   9.016
  167DIO    H1151343   5.557   5.476   9.263
  167DIO    H1251344   5.514   5.681   9.406
  167DIO    H1351345   5.367   5.599   9.356
  167DIO    H1451346   5.647   5.747   9.150
  167DIO    H1551347   5.723   5.657   9.279
  167DIO    H1651348   5.710   5.576   8.985
  167DIO    H1751349   5.849   5.636   9.073
  167DIO    H1851350   5.840   5.431   9.222
  167DIO    H1951351   5.709   5.367   9.120
  167DIO    H2051352   5.870   5.395   9.051
  168DIO     F151353   2.464   0.866   8.238
  168DIO     C151354   2.542   0.775   8.299
  168DIO     C251355   2.686   0.782   8.284
  168DIO     C351356   2.775   0.683   8.348
  168DIO     C451357   2.709   0.578   8.430
  168DIO     C551358   2.565   0.573   8.444
  168DIO     F251359   2.509   0.479   8.523
  168DIO     C651360   2.481   0.671   8.379
  168DIO     F351361   2.347   0.665   8.392
  168DIO     C751362   2.921   0.688   8.333
  168DIO     C851363   2.998   0.568   8.293
  168DIO     C951364   3.143   0.573   8.278
  168DIO    C1051365   3.215   0.694   8.313
  168DIO    C1151366   3.143   0.815   8.346
  168DIO    C1251367   2.999   0.811   8.358
  168DIO     F451368   2.934   0.924   8.393
  168DIO     O151369   3.348   0.699   8.274
  168DIO    C1351370   3.442   0.765   8.352
  168DIO     O251371   3.443   0.803   8.472
  168DIO    C1451372   3.571   0.779   8.284
  168DIO    C1551373   3.638   0.665   8.218
  168DIO     F551374   3.575   0.545   8.211
  168DIO    C1651375   3.768   0.675   8.156
  168DIO    C1751376   3.844   0.799   8.163
  168DIO    C1851377   3.775   0.918   8.212
  168DIO    C1951378   3.644   0.908   8.273
  168DIO     F651379   3.581   1.024   8.303
  168DIO    C2051380   3.985   0.809   8.109
  168DIO     O351381   4.055   0.684   8.108
  168DIO    C2151382   4.098   0.644   8.237
  168DIO    C2251383   4.187   0.751   8.300
  168DIO    C2351384   4.106   0.881   8.300
  168DIO     O451385   4.062   0.913   8.169
  168DIO    C2451386   4.320   0.772   8.224
  168DIO    C2551387   4.411   0.649   8.213
  168DIO    C2651388   4.449   0.588   8.347
  168DIO     H151389   2.728   0.862   8.224
  168DIO     H251390   2.770   0.509   8.488
  168DIO     H351391   2.947   0.476   8.269
  168DIO     H451392   3.198   0.488   8.241
  168DIO     H551393   3.197   0.906   8.366
  168DIO     H651394   3.806   0.589   8.101
  168DIO     H751395   3.818   1.017   8.199
  168DIO     H851396   3.975   0.837   8.003
  168DIO     H951397   4.012   0.624   8.301
  168DIO    H1051398   4.151   0.549   8.227
  168DIO    H1151399   4.210   0.723   8.403
  168DIO    H1251400   4.167   0.964   8.336
  168DIO    H1351401   4.020   0.873   8.368
  168DIO    H1451402   4.300   0.808   8.122
  168DIO    H1551403   4.376   0.851   8.274
  168DIO    H1651404   4.363   0.572   8.150
  168DIO    H1751405   4.502   0.678   8.160
  168DIO    H1851406   4.493   0.664   8.413
  168DIO    H1951407   4.362   0.544   8.397
  168DIO    H2051408   4.523   0.509   8.332
  169DIO     F151409   5.871   1.785   8.839
  169DIO     C151410   5.948   1.679   8.868
  169DIO     C251411   6.092   1.691   8.856
  169DIO     C351412   6.181   1.576   8.884
  169DIO     C451413   6.116   1.450   8.928
  169DIO     C551414   5.971   1.441   8.939
  169DIO     F251415   5.916   1.326   8.983
  169DIO     C651416   5.888   1.555   8.910
  169DIO     F351417   5.754   1.545   8.920
  169DIO     C751418   6.328   1.586   8.871
  169DIO     C851419   6.405   1.486   8.794
  169DIO     C951420   6.549   1.495   8.782
  169DIO    C1051421   6.622   1.598   8.854
  169DIO    C1151422   6.549   1.702   8.925
  169DIO    C1251423   6.405   1.694   8.935
  169DIO     F451424   6.340   1.789   9.005
  169DIO     O151425   6.754   1.615   8.819
  169DIO    C1351426   6.849   1.653   8.914
  169DIO     O251427   6.850   1.649   9.040
  169DIO    C1451428   6.978   1.688   8.854
  169DIO    C1551429   7.044   1.601   8.755
  169DIO     F551430   6.981   1.491   8.709
  169DIO    C1651431   7.175   1.631   8.699
  169DIO    C1751432   7.251   1.747   8.746
  169DIO    C1851433   7.182   1.843   8.832
  169DIO    C1951434   7.050   1.813   8.886
  169DIO     F651435   6.988   1.913   8.952
  169DIO    C2051436   7.391   1.773   8.698
  169DIO     O351437   7.461   1.655   8.657
  169DIO    C2151438   7.505   1.575   8.766
  169DIO    C2251439   7.594   1.656   8.860
  169DIO    C2351440   7.513   1.779   8.903
  169DIO     O451441   7.469   1.852   8.789
  169DIO    C2451442   7.726   1.700   8.795
  169DIO    C2551443   7.817   1.588   8.745
  169DIO    C2651444   7.856   1.487   8.852
  169DIO     H151445   6.135   1.786   8.825
  169DIO     H251446   6.176   1.366   8.959
  169DIO     H351447   6.353   1.406   8.742
  169DIO     H451448   6.604   1.426   8.719
  169DIO     H551449   6.604   1.781   8.974
  169DIO     H651450   7.213   1.568   8.620
  169DIO     H751451   7.225   1.940   8.852
  169DIO     H851452   7.382   1.834   8.608
  169DIO     H951453   7.418   1.536   8.820
  169DIO    H1051454   7.558   1.489   8.726
  169DIO    H1151455   7.616   1.596   8.949
  169DIO    H1251456   7.574   1.846   8.964
  169DIO    H1351457   7.427   1.749   8.964
  169DIO    H1451458   7.707   1.768   8.711
  169DIO    H1551459   7.783   1.759   8.869
  169DIO    H1651460   7.770   1.536   8.661
  169DIO    H1751461   7.909   1.633   8.705
  169DIO    H1851462   7.899   1.537   8.939
  169DIO    H1951463   7.769   1.429   8.885
  169DIO    H2051464   7.929   1.416   8.812
  170DIO     F151465   0.578   1.696   0.296
  170DIO     C151466   0.656   1.804   0.274
  170DIO     C251467   0.800   1.792   0.285
  170DIO     C351468   0.888   1.908   0.264
  170DIO     C451469   0.823   2.036   0.229
  170DIO     C551470   0.679   2.046   0.218
  170DIO     F251471   0.623   2.163   0.181
  170DIO     C651472   0.595   1.931   0.240
  170DIO     F351473   0.461   1.941   0.231
  170DIO     C751474   1.035   1.898   0.276
  170DIO     C851475   1.112   1.993   0.359
  170DIO     C951476   1.257   1.983   0.371
  170DIO    C1051477   1.329   1.885   0.292
  170DIO    C1151478   1.257   1.785   0.216
  170DIO    C1251479   1.113   1.793   0.206
  170DIO     F451480   1.048   1.703   0.130
  170DIO     O151481   1.461   1.865   0.326
  170DIO    C1351482   1.556   1.833   0.229
  170DIO     O251483   1.557   1.845   0.104
  170DIO    C1451484   1.685   1.794   0.287
  170DIO    C1551485   1.751   1.875   0.392
  170DIO     F551486   1.689   1.982   0.444
  170DIO    C1651487   1.882   1.841   0.445
  170DIO    C1751488   1.958   1.729   0.391
  170DIO    C1851489   1.889   1.638   0.300
  170DIO    C1951490   1.758   1.671   0.248
  170DIO     F651491   1.695   1.576   0.175
  170DIO    C2051492   2.099   1.700   0.437
  170DIO     O351493   2.168   1.815   0.486
  170DIO    C2151494   2.212   1.901   0.382
  170DIO    C2251495   2.301   1.827   0.283
  170DIO    C2351496   2.220   1.707   0.233
  170DIO     O451497   2.176   1.627   0.341
  170DIO    C2451498   2.434   1.778   0.345
  170DIO    C2551499   2.524   1.888   0.403
  170DIO    C2651500   2.563   1.995   0.302
  170DIO     H151501   0.842   1.695   0.310
  170DIO     H251502   0.884   2.122   0.202
  170DIO     H351503   1.060   2.068   0.417
  170DIO     H451504   1.312   2.047   0.438
  170DIO     H551505   1.311   1.709   0.162
  170DIO     H651506   1.920   1.899   0.528
  170DIO     H751507   1.932   1.543   0.273
  170DIO     H851508   2.089   1.633   0.524
  170DIO     H951509   2.125   1.944   0.331
  170DIO    H1051510   2.265   1.985   0.428
  170DIO    H1151511   2.323   1.892   0.198
  170DIO    H1251512   2.281   1.644   0.167
  170DIO    H1351513   2.134   1.740   0.173
  170DIO    H1451514   2.414   1.706   0.425
  170DIO    H1551515   2.490   1.724   0.268
  170DIO    H1651516   2.477   1.934   0.490
  170DIO    H1751517   2.616   1.840   0.440
  170DIO    H1851518   2.607   1.951   0.212
  170DIO    H1951519   2.476   2.055   0.272
  170DIO    H2051520   2.636   2.063   0.346
  171DIO     F151521   2.809   7.596   5.157
  171DIO     C151522   2.887   7.610   5.048
  171DIO     C251523   3.031   7.617   5.063
  171DIO     C351524   3.120   7.635   4.946
  171DIO     C451525   3.054   7.643   4.813
  171DIO     C551526   2.910   7.636   4.801
  171DIO     F251527   2.855   7.640   4.678
  171DIO     C651528   2.826   7.619   4.917
  171DIO     F351529   2.693   7.614   4.904
  171DIO     C751530   3.266   7.643   4.960
  171DIO     C851531   3.343   7.753   4.897
  171DIO     C951532   3.488   7.760   4.910
  171DIO    C1051533   3.561   7.654   4.977
  171DIO    C1151534   3.488   7.549   5.047
  171DIO    C1251535   3.344   7.543   5.036
  171DIO     F451536   3.279   7.441   5.096
  171DIO     O151537   3.693   7.680   5.007
  171DIO    C1351538   3.787   7.578   5.005
  171DIO     O251539   3.788   7.463   4.954
  171DIO    C1451540   3.917   7.619   5.061
  171DIO    C1551541   3.983   7.745   5.019
  171DIO     F551542   3.920   7.829   4.935
  171DIO    C1651543   4.114   7.784   5.068
  171DIO    C1751544   4.189   7.696   5.157
  171DIO    C1851545   4.121   7.581   5.213
  171DIO    C1951546   3.989   7.542   5.165
  171DIO     F651547   3.927   7.442   5.231
  171DIO    C2051548   4.330   7.731   5.199
  171DIO     O351549   4.400   7.814   5.107
  171DIO    C2151550   4.444   7.744   4.991
  171DIO    C2251551   4.532   7.626   5.029
  171DIO    C2351552   4.452   7.540   5.126
  171DIO     O451553   4.407   7.616   5.237
  171DIO    C2451554   4.665   7.669   5.095
  171DIO    C2551555   4.756   7.759   5.011
  171DIO    C2651556   4.794   7.699   4.876
  171DIO     H151557   3.074   7.609   5.162
  171DIO     H251558   3.115   7.647   4.724
  171DIO     H351559   3.292   7.832   4.845
  171DIO     H451560   3.543   7.845   4.872
  171DIO     H551561   3.543   7.473   5.101
  171DIO     H651562   4.152   7.882   5.041
  171DIO     H751563   4.164   7.525   5.295
  171DIO     H851564   4.320   7.791   5.291
  171DIO     H951565   4.357   7.710   4.933
  171DIO    H1051566   4.496   7.815   4.927
  171DIO    H1151567   4.555   7.567   4.940
  171DIO    H1251568   4.513   7.457   5.164
  171DIO    H1351569   4.366   7.494   5.075
  171DIO    H1451570   4.645   7.721   5.190
  171DIO    H1551571   4.722   7.579   5.121
  171DIO    H1651572   4.709   7.857   4.995
  171DIO    H1751573   4.848   7.779   5.068
  171DIO    H1851574   4.838   7.600   4.889
  171DIO    H1951575   4.708   7.691   4.810
  171DIO    H2051576   4.868   7.763   4.827
  172DIO     F151577   5.739   9.410   1.044
  172DIO     C151578   5.817   9.319   0.981
  172DIO     C251579   5.961   9.336   0.982
  172DIO     C351580   6.049   9.241   0.912
  172DIO     C451581   5.984   9.127   0.843
  172DIO     C551582   5.840   9.112   0.844
  172DIO     F251583   5.784   9.005   0.783
  172DIO     C651584   5.756   9.208   0.912
  172DIO     F351585   5.622   9.194   0.911
  172DIO     C751586   6.196   9.257   0.911
  172DIO     C851587   6.273   9.252   0.785
  172DIO     C951588   6.418   9.267   0.784
  172DIO    C1051589   6.490   9.278   0.910
  172DIO    C1151590   6.418   9.290   1.035
  172DIO    C1251591   6.274   9.278   1.035
  172DIO     F451592   6.209   9.285   1.153
  172DIO     O151593   6.622   9.316   0.900
  172DIO    C1351594   6.717   9.267   0.990
  172DIO     O251595   6.718   9.168   1.068
  172DIO    C1451596   6.846   9.336   0.979
  172DIO    C1551597   6.912   9.357   0.849
  172DIO     F551598   6.850   9.321   0.735
  172DIO    C1651599   7.043   9.418   0.836
  172DIO    C1751600   7.119   9.456   0.955
  172DIO    C1851601   7.050   9.452   1.084
  172DIO    C1951602   6.919   9.392   1.095
  172DIO     F651603   6.856   9.405   1.215
  172DIO    C2051604   7.260   9.510   0.944
  172DIO     O351605   7.329   9.466   0.827
  172DIO    C2151606   7.373   9.331   0.836
  172DIO    C2251607   7.462   9.310   0.958
  172DIO    C2351608   7.381   9.356   1.080
  172DIO     O451609   7.337   9.491   1.063
  172DIO    C2451610   7.595   9.389   0.951
  172DIO    C2551611   7.685   9.356   0.832
  172DIO    C2651612   7.724   9.209   0.823
  172DIO     H151613   6.003   9.421   1.035
  172DIO     H251614   6.045   9.049   0.799
  172DIO     H351615   6.221   9.242   0.691
  172DIO     H451616   6.473   9.272   0.691
  172DIO     H551617   6.472   9.304   1.127
  172DIO     H651618   7.081   9.439   0.737
  172DIO     H751619   7.093   9.499   1.171
  172DIO     H851620   7.250   9.618   0.933
  172DIO     H951621   7.286   9.264   0.840
  172DIO    H1051622   7.426   9.307   0.744
  172DIO    H1151623   7.484   9.204   0.969
  172DIO    H1251624   7.442   9.352   1.170
  172DIO    H1351625   7.295   9.290   1.097
  172DIO    H1451626   7.575   9.497   0.949
  172DIO    H1551627   7.651   9.370   1.043
  172DIO    H1651628   7.638   9.387   0.738
  172DIO    H1751629   7.777   9.415   0.841
  172DIO    H1851630   7.768   9.174   0.917
  172DIO    H1951631   7.637   9.146   0.800
  172DIO    H2051632   7.797   9.194   0.743
  173DIO     F151633   6.515   5.842   5.202
  173DIO     C151634   6.593   5.950   5.221
  173DIO     C251635   6.737   5.934   5.227
  173DIO     C351636   6.826   6.050   5.250
  173DIO     C451637   6.760   6.183   5.263
  173DIO     C551638   6.616   6.196   5.257
  173DIO     F251639   6.560   6.318   5.266
  173DIO     C651640   6.532   6.080   5.235
  173DIO     F351641   6.398   6.094   5.231
  173DIO     C751642   6.972   6.036   5.257
  173DIO     C851643   7.049   6.095   5.369
  173DIO     C951644   7.194   6.081   5.376
  173DIO    C1051645   7.266   6.018   5.268
  173DIO    C1151646   7.194   5.953   5.160
  173DIO    C1251647   7.050   5.965   5.154
  173DIO     F451648   6.985   5.908   5.050
  173DIO     O151649   7.399   5.988   5.292
  173DIO    C1351650   7.493   5.994   5.190
  173DIO     O251651   7.494   6.050   5.077
  173DIO    C1451652   7.622   5.936   5.229
  173DIO    C1551653   7.689   5.973   5.356
  173DIO     F551654   7.626   6.054   5.444
  173DIO    C1651655   7.819   5.922   5.394
  173DIO    C1751656   7.895   5.838   5.302
  173DIO    C1851657   7.826   5.786   5.185
  173DIO    C1951658   7.695   5.836   5.148
  173DIO     F651659   7.632   5.773   5.046
  173DIO    C2051660   8.036   5.794   5.335
  173DIO     O351661   8.106   5.883   5.423
  173DIO    C2151662   8.149   6.001   5.357
  173DIO    C2251663   8.238   5.968   5.238
  173DIO    C2351664   8.157   5.875   5.147
  173DIO     O451665   8.113   5.760   5.219
  173DIO    C2451666   8.371   5.900   5.278
  173DIO    C2551667   8.462   5.981   5.371
  173DIO    C2651668   8.500   6.118   5.317
  173DIO     H151669   6.779   5.835   5.215
  173DIO     H251670   6.821   6.272   5.270
  173DIO     H351671   6.998   6.144   5.451
  173DIO     H451672   7.249   6.116   5.463
  173DIO     H551673   7.248   5.902   5.082
  173DIO     H651674   7.857   5.946   5.493
  173DIO     H751675   7.869   5.707   5.125
  173DIO     H851676   8.026   5.700   5.391
  173DIO     H951677   8.063   6.060   5.325
  173DIO    H1051678   8.202   6.063   5.430
  173DIO    H1151679   8.261   6.060   5.182
  173DIO    H1251680   8.218   5.840   5.063
  173DIO    H1351681   8.071   5.927   5.104
  173DIO    H1451682   8.351   5.803   5.326
  173DIO    H1551683   8.427   5.878   5.186
  173DIO    H1651684   8.414   5.993   5.469
  173DIO    H1751685   8.553   5.923   5.388
  173DIO    H1851686   8.544   6.109   5.217
  173DIO    H1951687   8.413   6.184   5.311
  173DIO    H2051688   8.574   6.165   5.382
  174DIO     F151689   1.441   5.744   1.102
  174DIO     C151690   1.519   5.838   1.160
  174DIO     C251691   1.663   5.821   1.159
  174DIO     C351692   1.752   5.920   1.224
  174DIO     C451693   1.686   6.038   1.286
  174DIO     C551694   1.542   6.052   1.285
  174DIO     F251695   1.487   6.163   1.339
  174DIO     C651696   1.458   5.953   1.222
  174DIO     F351697   1.325   5.968   1.222
  174DIO     C751698   1.898   5.904   1.225
  174DIO     C851699   1.975   5.917   1.351
  174DIO     C951700   2.120   5.901   1.353
  174DIO    C1051701   2.193   5.884   1.228
  174DIO    C1151702   2.120   5.864   1.104
  174DIO    C1251703   1.976   5.876   1.103
  174DIO     F451704   1.911   5.863   0.986
  174DIO     O151705   2.325   5.846   1.240
  174DIO    C1351706   2.419   5.890   1.147
  174DIO     O251707   2.420   5.984   1.064
  174DIO    C1451708   2.549   5.822   1.162
  174DIO    C1551709   2.615   5.808   1.294
  174DIO     F551710   2.552   5.851   1.406
  174DIO    C1651711   2.746   5.748   1.310
  174DIO    C1751712   2.821   5.703   1.193
  174DIO    C1851713   2.753   5.700   1.065
  174DIO    C1951714   2.621   5.759   1.049
  174DIO     F651715   2.559   5.739   0.931
  174DIO    C2051716   2.962   5.650   1.207
  174DIO     O351717   3.032   5.700   1.321
  174DIO    C2151718   3.076   5.835   1.305
  174DIO    C2251719   3.164   5.848   1.182
  174DIO    C2351720   3.084   5.796   1.063
  174DIO     O451721   3.039   5.662   1.087
  174DIO    C2451722   3.297   5.770   1.194
  174DIO    C2551723   3.388   5.810   1.310
  174DIO    C2651724   3.426   5.958   1.311
  174DIO     H151725   1.706   5.734   1.111
  174DIO     H251726   1.747   6.119   1.326
  174DIO     H351727   1.924   5.932   1.445
  174DIO     H451728   2.175   5.902   1.446
  174DIO     H551729   2.175   5.845   1.013
  174DIO     H651730   2.784   5.733   1.410
  174DIO     H751731   2.796   5.648   0.980
  174DIO     H851732   2.952   5.542   1.224
  174DIO     H951733   2.989   5.901   1.297
  174DIO    H1051734   3.128   5.864   1.396
  174DIO    H1151735   3.187   5.954   1.164
  174DIO    H1251736   3.145   5.794   0.972
  174DIO    H1351737   2.998   5.860   1.042
  174DIO    H1451738   3.277   5.663   1.202
  174DIO    H1551739   3.354   5.784   1.101
  174DIO    H1651740   3.341   5.785   1.406
  174DIO    H1751741   3.480   5.750   1.305
  174DIO    H1851742   3.470   5.987   1.215
  174DIO    H1951743   3.340   6.021   1.331
  174DIO    H2051744   3.500   5.977   1.389
  175DIO     F151745   7.297   7.936   4.393
  175DIO     C151746   7.374   7.964   4.500
  175DIO     C251747   7.518   7.952   4.488
  175DIO     C351748   7.607   7.980   4.603
  175DIO     C451749   7.542   8.023   4.729
  175DIO     C551750   7.397   8.034   4.738
  175DIO     F251751   7.342   8.077   4.853
  175DIO     C651752   7.314   8.005   4.624
  175DIO     F351753   7.180   8.015   4.634
  175DIO     C751754   7.754   7.967   4.593
  175DIO     C851755   7.831   7.890   4.693
  175DIO     C951756   7.975   7.877   4.684
  175DIO    C1051757   8.048   7.950   4.581
  175DIO    C1151758   7.976   8.021   4.477
  175DIO    C1251759   7.831   8.031   4.485
  175DIO     F451760   7.767   8.102   4.391
  175DIO     O151761   8.180   7.915   4.564
  175DIO    C1351762   8.275   8.010   4.527
  175DIO     O251763   8.276   8.136   4.531
  175DIO    C1451764   8.404   7.951   4.491
  175DIO    C1551765   8.470   7.850   4.577
  175DIO     F551766   8.408   7.804   4.687
  175DIO    C1651767   8.601   7.795   4.547
  175DIO    C1751768   8.677   7.843   4.432
  175DIO    C1851769   8.608   7.929   4.336
  175DIO    C1951770   8.476   7.983   4.366
  175DIO     F651771   8.414   8.050   4.266
  175DIO    C2051772   8.817   7.795   4.405
  175DIO     O351773   8.887   7.753   4.523
  175DIO    C2151774   8.931   7.862   4.603
  175DIO    C2251775   9.020   7.956   4.523
  175DIO    C2351776   8.939   8.000   4.401
  175DIO     O451777   8.895   7.886   4.326
  175DIO    C2451778   9.153   7.891   4.478
  175DIO    C2551779   9.243   7.840   4.591
  175DIO    C2651780   9.282   7.947   4.692
  175DIO     H151781   7.561   7.922   4.393
  175DIO     H251782   7.602   8.054   4.813
  175DIO     H351783   7.779   7.836   4.772
  175DIO     H451784   8.031   7.814   4.752
  175DIO     H551785   8.030   8.071   4.398
  175DIO     H651786   8.639   7.716   4.610
  175DIO     H751787   8.651   7.950   4.239
  175DIO     H851788   8.808   7.705   4.344
  175DIO     H951789   8.844   7.915   4.643
  175DIO    H1051790   8.984   7.821   4.690
  175DIO    H1151791   9.042   8.045   4.583
  175DIO    H1251792   9.000   8.061   4.334
  175DIO    H1351793   8.853   8.061   4.430
  175DIO    H1451794   9.133   7.808   4.410
  175DIO    H1551795   9.209   7.965   4.420
  175DIO    H1651796   9.196   7.756   4.642
  175DIO    H1751797   9.335   7.801   4.545
  175DIO    H1851798   9.326   8.034   4.643
  175DIO    H1951799   9.195   7.980   4.750
  175DIO    H2051800   9.355   7.907   4.762
  176DIO     F151801   8.013   3.249   8.630
  176DIO     C151802   8.091   3.320   8.714
  176DIO     C251803   8.235   3.304   8.708
  176DIO     C351804   8.324   3.378   8.801
  176DIO     C451805   8.258   3.470   8.897
  176DIO     C551806   8.114   3.485   8.900
  176DIO     F251807   8.058   3.573   8.986
  176DIO     C651808   8.030   3.410   8.809
  176DIO     F351809   7.896   3.424   8.814
  176DIO     C751810   8.470   3.363   8.797
  176DIO     C851811   8.547   3.335   8.921
  176DIO     C951812   8.692   3.320   8.917
  176DIO    C1051813   8.764   3.342   8.794
  176DIO    C1151814   8.692   3.362   8.669
  176DIO    C1251815   8.548   3.374   8.672
  176DIO     F451816   8.483   3.398   8.557
  176DIO     O151817   8.897   3.303   8.793
  176DIO    C1351818   8.991   3.373   8.719
  176DIO     O251819   8.992   3.489   8.669
  176DIO    C1451820   9.120   3.304   8.711
  176DIO    C1551821   9.187   3.250   8.832
  176DIO     F551822   9.124   3.255   8.952
  176DIO    C1651823   9.317   3.187   8.828
  176DIO    C1751824   9.393   3.182   8.704
  176DIO    C1851825   9.324   3.219   8.581
  176DIO    C1951826   9.193   3.280   8.585
  176DIO     F651827   9.130   3.298   8.466
  176DIO    C2051828   9.534   3.127   8.700
  176DIO     O351829   9.604   3.139   8.825
  176DIO    C2151830   9.647   3.272   8.851
  176DIO    C2251831   9.736   3.323   8.738
  176DIO    C2351832   9.655   3.310   8.609
  176DIO     O451833   9.611   3.176   8.590
  176DIO    C2451834   9.869   3.245   8.725
  176DIO    C2551835   9.960   3.247   8.849
  176DIO    C2651836   9.998   3.386   8.895
  176DIO     H151837   8.277   3.237   8.635
  176DIO     H251838   8.319   3.535   8.960
  176DIO     H351839   8.496   3.320   9.015
  176DIO     H451840   8.747   3.291   9.006
  176DIO     H551841   8.746   3.373   8.577
  176DIO     H651842   9.355   3.142   8.919
  176DIO     H751843   9.367   3.196   8.484
  176DIO     H851844   9.524   3.019   8.683
  176DIO     H951845   9.561   3.337   8.864
  176DIO    H1051846   9.700   3.271   8.947
  176DIO    H1151847   9.759   3.429   8.755
  176DIO    H1251848   9.716   3.337   8.522
  176DIO    H1351849   9.569   3.378   8.610
  176DIO    H1451850   9.849   3.140   8.699
  176DIO    H1551851   9.925   3.287   8.641
  176DIO    H1651852   9.912   3.192   8.931
  176DIO    H1751853  10.051   3.191   8.825
  176DIO    H1851854  10.042   3.444   8.814
  176DIO    H1951855   9.911   3.441   8.934
  176DIO    H2051856  10.072   3.380   8.976
  177DIO     F151857   5.879   7.219   9.196
  177DIO     C151858   5.956   7.329   9.207
  177DIO     C251859   6.100   7.313   9.214
  177DIO     C351860   6.189   7.431   9.228
  177DIO     C451861   6.124   7.564   9.233
  177DIO     C551862   5.979   7.576   9.226
  177DIO     F251863   5.924   7.699   9.226
  177DIO     C651864   5.896   7.460   9.212
  177DIO     F351865   5.762   7.473   9.207
  177DIO     C751866   6.336   7.417   9.237
  177DIO     C851867   6.413   7.483   9.345
  177DIO     C951868   6.557   7.470   9.353
  177DIO    C1051869   6.630   7.400   9.249
  177DIO    C1151870   6.557   7.328   9.145
  177DIO    C1251871   6.413   7.339   9.139
  177DIO     F451872   6.348   7.275   9.039
  177DIO     O151873   6.762   7.371   9.275
  177DIO    C1351874   6.857   7.370   9.173
  177DIO     O251875   6.858   7.418   9.057
  177DIO    C1451876   6.986   7.315   9.216
  177DIO    C1551877   7.052   7.361   9.340
  177DIO     F551878   6.989   7.448   9.422
  177DIO    C1651879   7.183   7.313   9.381
  177DIO    C1751880   7.259   7.222   9.296
  177DIO    C1851881   7.190   7.163   9.182
  177DIO    C1951882   7.058   7.210   9.142
  177DIO     F651883   6.996   7.140   9.044
  177DIO    C2051884   7.399   7.180   9.331
  177DIO     O351885   7.469   7.276   9.412
  177DIO    C2151886   7.513   7.389   9.339
  177DIO    C2251887   7.602   7.348   9.222
  177DIO    C2351888   7.521   7.248   9.138
  177DIO     O451889   7.477   7.139   9.218
  177DIO    C2451890   7.734   7.283   9.267
  177DIO    C2551891   7.825   7.370   9.354
  177DIO    C2651892   7.864   7.502   9.291
  177DIO     H151893   6.143   7.214   9.208
  177DIO     H251894   6.184   7.654   9.234
  177DIO     H351895   6.361   7.538   9.422
  177DIO     H451896   6.612   7.511   9.436
  177DIO     H551897   6.612   7.271   9.071
  177DIO     H651898   7.221   7.344   9.478
  177DIO     H751899   7.233   7.079   9.128
  177DIO     H851900   7.390   7.091   9.394
  177DIO     H951901   7.426   7.446   9.303
  177DIO    H1051902   7.566   7.456   9.408
  177DIO    H1151903   7.624   7.435   9.160
  177DIO    H1251904   7.582   7.208   9.057
  177DIO    H1351905   7.435   7.298   9.092
  177DIO    H1451906   7.715   7.190   9.321
  177DIO    H1551907   7.791   7.254   9.177
  177DIO    H1651908   7.778   7.389   9.452
  177DIO    H1751909   7.917   7.314   9.376
  177DIO    H1851910   7.907   7.487   9.191
  177DIO    H1951911   7.777   7.569   9.280
  177DIO    H2051912   7.937   7.554   9.353
  178DIO     F151913   8.013   1.773   7.822
  178DIO     C151914   8.091   1.717   7.727
  178DIO     C251915   8.235   1.732   7.735
  178DIO     C351916   8.324   1.675   7.632
  178DIO     C451917   8.258   1.600   7.521
  178DIO     C551918   8.114   1.587   7.516
  178DIO     F251919   8.058   1.515   7.416
  178DIO     C651920   8.030   1.645   7.618
  178DIO     F351921   7.896   1.633   7.611
  178DIO     C751922   8.470   1.690   7.638
  178DIO     C851923   8.547   1.738   7.521
  178DIO     C951924   8.692   1.752   7.526
  178DIO    C1051925   8.764   1.709   7.645
  178DIO    C1151926   8.692   1.668   7.764
  178DIO    C1251927   8.548   1.657   7.759
  178DIO     F451928   8.483   1.614   7.869
  178DIO     O151929   8.897   1.748   7.652
  178DIO    C1351930   8.991   1.666   7.713
  178DIO     O251931   8.992   1.543   7.743
  178DIO    C1451932   9.120   1.733   7.732
  178DIO    C1551933   9.187   1.807   7.622
  178DIO     F551934   9.124   1.822   7.504
  178DIO    C1651935   9.317   1.868   7.637
  178DIO    C1751936   9.393   1.852   7.760
  178DIO    C1851937   9.324   1.795   7.876
  178DIO    C1951938   9.193   1.735   7.861
  178DIO     F651939   9.130   1.697   7.975
  178DIO    C2051940   9.534   1.906   7.773
  178DIO     O351941   9.604   1.915   7.649
  178DIO    C2151942   9.647   1.789   7.600
  178DIO    C2251943   9.736   1.719   7.703
  178DIO    C2351944   9.655   1.709   7.832
  178DIO     O451945   9.611   1.838   7.873
  178DIO    C2451946   9.869   1.793   7.729
  178DIO    C2551947   9.960   1.813   7.607
  178DIO    C2651948   9.998   1.683   7.537
  178DIO     H151949   8.277   1.786   7.819
  178DIO     H251950   8.319   1.548   7.448
  178DIO     H351951   8.496   1.769   7.431
  178DIO     H451952   8.747   1.795   7.444
  178DIO     H551953   8.746   1.642   7.853
  178DIO     H651954   9.355   1.928   7.555
  178DIO     H751955   9.367   1.801   7.975
  178DIO     H851956   9.524   2.009   7.809
  178DIO     H951957   9.561   1.726   7.576
  178DIO    H1051958   9.700   1.805   7.506
  178DIO    H1151959   9.759   1.617   7.668
  178DIO    H1251960   9.716   1.668   7.913
  178DIO    H1351961   9.569   1.643   7.820
  178DIO    H1451962   9.849   1.892   7.772
  178DIO    H1551963   9.925   1.738   7.804
  178DIO    H1651964   9.912   1.880   7.534
  178DIO    H1751965  10.051   1.863   7.640
  178DIO    H1851966  10.042   1.612   7.608
  178DIO    H1951967   9.911   1.636   7.490
  178DIO    H2051968  10.072   1.703   7.459
  179DIO     F151969   0.425   6.135   0.319
  179DIO     C151970   0.502   6.025   0.320
  179DIO     C251971   0.646   6.039   0.311
  179DIO     C351972   0.735   5.921   0.309
  179DIO     C451973   0.670   5.788   0.318
  179DIO     C551974   0.525   5.776   0.327
  179DIO     F251975   0.470   5.654   0.340
  179DIO     C651976   0.442   5.894   0.328
  179DIO     F351977   0.308   5.881   0.335
  179DIO     C751978   0.882   5.933   0.299
  179DIO     C851979   0.959   5.857   0.199
  179DIO     C951980   1.103   5.868   0.189
  179DIO    C1051981   1.176   5.949   0.286
  179DIO    C1151982   1.103   6.032   0.381
  179DIO    C1251983   0.959   6.022   0.388
  179DIO     F451984   0.894   6.096   0.481
  179DIO     O151985   1.308   5.975   0.256
  179DIO    C1351986   1.403   5.987   0.358
  179DIO     O251987   1.404   5.951   0.478
  179DIO    C1451988   1.532   6.037   0.309
  179DIO    C1551989   1.598   5.979   0.190
  179DIO     F551990   1.535   5.884   0.118
  179DIO    C1651991   1.729   6.022   0.145
  179DIO    C1751992   1.805   6.121   0.220
  179DIO    C1851993   1.736   6.192   0.327
  179DIO    C1951994   1.604   6.150   0.372
  179DIO     F651995   1.542   6.229   0.461
  179DIO    C2051996   1.945   6.159   0.180
  179DIO     O351997   2.015   6.056   0.109
  179DIO    C2151998   2.059   5.951   0.195
  179DIO    C2251999   2.148   6.004   0.307
  179DIO    C2352000   2.067   6.112   0.379
  179DIO     O452001   2.023   6.212   0.288
  179DIO    C2452002   2.280   6.064   0.255
  179DIO    C2552003   2.371   5.968   0.177
  179DIO    C2652004   2.410   5.843   0.255
  179DIO     H152005   0.689   6.139   0.306
  179DIO     H252006   0.730   5.699   0.327
  179DIO     H352007   0.907   5.794   0.127
  179DIO     H452008   1.158   5.819   0.111
  179DIO     H552009   1.158   6.096   0.448
  179DIO     H652010   1.767   5.981   0.052
  179DIO     H752011   1.779   6.281   0.372
  179DIO     H852012   1.936   6.241   0.108
  179DIO     H952013   1.972   5.898   0.236
  179DIO    H1052014   2.112   5.877   0.133
  179DIO    H1152015   2.170   5.924   0.377
  179DIO    H1252016   2.128   6.161   0.456
  179DIO    H1352017   1.981   6.068   0.431
  179DIO    H1452018   2.261   6.151   0.191
  179DIO    H1552019   2.337   6.102   0.341
  179DIO    H1652020   2.324   5.939   0.083
  179DIO    H1752021   2.463   6.022   0.150
  179DIO    H1852022   2.453   5.869   0.352
  179DIO    H1952023   2.323   5.778   0.272
  179DIO    H2052024   2.483   5.785   0.198
  180DIO     F152025   4.159   6.646   4.081
  180DIO     C152026   4.237   6.641   4.191
  180DIO     C252027   4.381   6.633   4.176
  180DIO     C352028   4.470   6.626   4.294
  180DIO     C452029   4.404   6.630   4.427
  180DIO     C552030   4.260   6.639   4.439
  180DIO     F252031   4.205   6.646   4.562
  180DIO     C652032   4.176   6.645   4.322
  180DIO     F352033   4.043   6.651   4.335
  180DIO     C752034   4.616   6.617   4.281
  180DIO     C852035   4.693   6.514   4.354
  180DIO     C952036   4.838   6.505   4.342
  180DIO    C1052037   4.911   6.604   4.265
  180DIO    C1152038   4.838   6.703   4.186
  180DIO    C1252039   4.694   6.710   4.197
  180DIO     F452040   4.629   6.805   4.127
  180DIO     O152041   5.043   6.576   4.238
  180DIO    C1352042   5.137   6.678   4.230
  180DIO     O252043   5.138   6.797   4.271
  180DIO    C1452044   5.267   6.631   4.178
  180DIO    C1552045   5.333   6.510   4.232
  180DIO     F552046   5.270   6.434   4.324
  180DIO    C1652047   5.464   6.466   4.187
  180DIO    C1752048   5.539   6.546   4.090
  180DIO    C1852049   5.471   6.656   4.024
  180DIO    C1952050   5.339   6.698   4.068
  180DIO     F652051   5.277   6.791   3.993
  180DIO    C2052052   5.680   6.508   4.051
  180DIO     O352053   5.750   6.433   4.151
  180DIO    C2152054   5.794   6.514   4.260
  180DIO    C2252055   5.882   6.627   4.211
  180DIO    C2352056   5.802   6.705   4.106
  180DIO     O452057   5.757   6.618   4.002
  180DIO    C2452058   6.015   6.578   4.149
  180DIO    C2552059   6.106   6.497   4.242
  180DIO    C2652060   6.144   6.569   4.370
  180DIO     H152061   4.424   6.632   4.076
  180DIO     H252062   4.465   6.636   4.517
  180DIO     H352063   4.642   6.440   4.414
  180DIO     H452064   4.893   6.424   4.388
  180DIO     H552065   4.893   6.773   4.125
  180DIO     H652066   5.502   6.372   4.223
  180DIO     H752067   5.514   6.704   3.937
  180DIO     H852068   5.670   6.439   3.966
  180DIO     H952069   5.707   6.553   4.314
  180DIO    H1052070   5.846   6.449   4.331
  180DIO    H1152071   5.905   6.695   4.294
  180DIO    H1252072   5.863   6.783   4.061
  180DIO    H1352073   5.716   6.754   4.153
  180DIO    H1452074   5.995   6.518   4.059
  180DIO    H1552075   6.072   6.666   4.115
  180DIO    H1652076   6.059   6.401   4.266
  180DIO    H1752077   6.198   6.472   4.187
  180DIO    H1852078   6.188   6.667   4.348
  180DIO    H1952079   6.058   6.583   4.435
  180DIO    H2052080   6.218   6.510   4.425
  181DIO     F152081   6.233   4.812   6.325
  181DIO     C152082   6.311   4.848   6.221
  181DIO     C252083   6.455   4.851   6.237
  181DIO     C352084   6.544   4.892   6.126
  181DIO     C452085   6.478   4.926   5.998
  181DIO     C552086   6.334   4.921   5.984
  181DIO     F252087   6.279   4.949   5.864
  181DIO     C652088   6.250   4.882   6.094
  181DIO     F352089   6.116   4.880   6.080
  181DIO     C752090   6.690   4.897   6.141
  181DIO     C852091   6.767   5.017   6.101
  181DIO     C952092   6.912   5.022   6.116
  181DIO    C1052093   6.985   4.904   6.161
  181DIO    C1152094   6.912   4.788   6.208
  181DIO    C1252095   6.768   4.784   6.196
  181DIO     F452096   6.703   4.673   6.236
  181DIO     O152097   7.117   4.924   6.195
  181DIO    C1352098   7.211   4.824   6.173
  181DIO     O252099   7.212   4.721   6.100
  181DIO    C1452100   7.340   4.854   6.236
  181DIO    C1552101   7.407   4.985   6.219
  181DIO     F552102   7.344   5.085   6.153
  181DIO    C1652103   7.537   5.014   6.275
  181DIO    C1752104   7.613   4.911   6.345
  181DIO    C1852105   7.544   4.786   6.377
  181DIO    C1952106   7.413   4.758   6.322
  181DIO     F652107   7.350   4.647   6.368
  181DIO    C2052108   7.754   4.936   6.393
  181DIO     O352109   7.824   5.036   6.319
  181DIO    C2152110   7.867   4.990   6.191
  181DIO    C2252111   7.956   4.867   6.206
  181DIO    C2352112   7.875   4.763   6.284
  181DIO     O452113   7.831   4.816   6.408
  181DIO    C2452114   8.089   4.896   6.279
  181DIO    C2552115   8.180   5.001   6.214
  181DIO    C2652116   8.218   4.968   6.070
  181DIO     H152117   6.498   4.824   6.333
  181DIO     H252118   6.539   4.947   5.910
  181DIO     H352119   6.716   5.105   6.065
  181DIO     H452120   6.967   5.112   6.094
  181DIO     H552121   6.966   4.703   6.247
  181DIO     H652122   7.576   5.115   6.267
  181DIO     H752123   7.587   4.715   6.446
  181DIO     H852124   7.744   4.977   6.495
  181DIO     H952125   7.781   4.967   6.128
  181DIO    H1052126   7.920   5.072   6.142
  181DIO    H1152127   7.979   4.826   6.107
  181DIO    H1252128   7.937   4.675   6.305
  181DIO    H1352129   7.789   4.729   6.225
  181DIO    H1452130   8.069   4.928   6.382
  181DIO    H1552131   8.145   4.802   6.287
  181DIO    H1652132   8.132   5.100   6.217
  181DIO    H1752133   8.271   5.009   6.273
  181DIO    H1852134   8.262   4.868   6.063
  181DIO    H1952135   8.132   4.973   6.004
  181DIO    H2052136   8.292   5.040   6.034
  182DIO     F152137   4.809   9.016   3.330
  182DIO     C152138   4.887   8.922   3.274
  182DIO     C252139   5.031   8.939   3.274
  182DIO     C352140   5.120   8.838   3.211
  182DIO     C452141   5.054   8.719   3.152
  182DIO     C552142   4.910   8.705   3.153
  182DIO     F252143   4.854   8.593   3.101
  182DIO     C652144   4.826   8.805   3.214
  182DIO     F352145   4.692   8.791   3.214
  182DIO     C752146   5.266   8.854   3.209
  182DIO     C852147   5.343   8.839   3.084
  182DIO     C952148   5.488   8.854   3.082
  182DIO    C1052149   5.560   8.874   3.206
  182DIO    C1152150   5.488   8.897   3.330
  182DIO    C1252151   5.344   8.884   3.331
  182DIO     F452152   5.279   8.900   3.448
  182DIO     O152153   5.693   8.912   3.194
  182DIO    C1352154   5.787   8.870   3.287
  182DIO     O252155   5.788   8.777   3.373
  182DIO    C1452156   5.916   8.938   3.271
  182DIO    C1552157   5.982   8.949   3.139
  182DIO     F552158   5.920   8.904   3.028
  182DIO    C1652159   6.113   9.009   3.122
  182DIO    C1752160   6.189   9.056   3.238
  182DIO    C1852161   6.120   9.062   3.366
  182DIO    C1952162   5.989   9.002   3.383
  182DIO     F652163   5.926   9.024   3.500
  182DIO    C2052164   6.330   9.109   3.223
  182DIO     O352165   6.399   9.056   3.109
  182DIO    C2152166   6.443   8.922   3.129
  182DIO    C2252167   6.532   8.911   3.252
  182DIO    C2352168   6.451   8.966   3.370
  182DIO     O452169   6.407   9.099   3.343
  182DIO    C2452170   6.665   8.989   3.239
  182DIO    C2552171   6.755   8.946   3.123
  182DIO    C2652172   6.794   8.799   3.125
  182DIO     H152173   5.073   9.027   3.321
  182DIO     H252174   5.115   8.638   3.113
  182DIO     H352175   5.292   8.822   2.990
  182DIO     H452176   5.543   8.852   2.989
  182DIO     H552177   5.542   8.917   3.421
  182DIO     H652178   6.151   9.022   3.022
  182DIO     H752179   6.163   9.115   3.450
  182DIO     H852180   6.320   9.216   3.204
  182DIO     H952181   6.356   8.856   3.138
  182DIO    H1052182   6.496   8.891   3.038
  182DIO    H1152183   6.555   8.805   3.271
  182DIO    H1252184   6.512   8.969   3.461
  182DIO    H1352185   6.365   8.901   3.391
  182DIO    H1452186   6.645   9.096   3.228
  182DIO    H1552187   6.721   8.977   3.332
  182DIO    H1652188   6.708   8.970   3.027
  182DIO    H1752189   6.847   9.006   3.127
  182DIO    H1852190   6.838   8.771   3.221
  182DIO    H1952191   6.707   8.735   3.106
  182DIO    H2052192   6.868   8.778   3.047
  183DIO     F152193   7.570   9.679   4.231
  183DIO     C152194   7.647   9.745   4.319
  183DIO     C252195   7.791   9.729   4.312
  183DIO     C352196   7.880   9.798   4.409
  183DIO     C452197   7.815   9.885   4.510
  183DIO     C552198   7.670   9.899   4.514
  183DIO     F252199   7.615   9.982   4.604
  183DIO     C652200   7.587   9.830   4.419
  183DIO     F352201   7.453   9.843   4.425
  183DIO     C752202   8.027   9.783   4.405
  183DIO     C852203   8.104   9.748   4.526
  183DIO     C952204   8.248   9.733   4.522
  183DIO    C1052205   8.321   9.762   4.400
  183DIO    C1152206   8.249   9.789   4.277
  183DIO    C1252207   8.104   9.801   4.280
  183DIO     F452208   8.040   9.832   4.166
  183DIO     O152209   8.453   9.723   4.397
  183DIO    C1352210   8.548   9.798   4.326
  183DIO     O252211   8.549   9.916   4.283
  183DIO    C1452212   8.677   9.729   4.315
  183DIO    C1552213   8.743   9.668   4.433
  183DIO     F552214   8.681   9.667   4.553
  183DIO    C1652215   8.874   9.606   4.426
  183DIO    C1752216   8.950   9.607   4.301
  183DIO    C1852217   8.881   9.651   4.180
  183DIO    C1952218   8.749   9.712   4.187
  183DIO     F652219   8.687   9.737   4.070
  183DIO    C2052220   9.090   9.553   4.294
  183DIO     O352221   9.160   9.558   4.419
  183DIO    C2152222   9.204   9.689   4.453
  183DIO    C2252223   9.293   9.746   4.343
  183DIO    C2352224   9.212   9.741   4.214
  183DIO     O452225   9.168   9.608   4.187
  183DIO    C2452226   9.426   9.669   4.326
  183DIO    C2552227   9.516   9.664   4.449
  183DIO    C2652228   9.555   9.801   4.503
  183DIO     H152229   7.834   9.666   4.235
  183DIO     H252230   7.875   9.945   4.576
  183DIO     H352231   8.052   9.728   4.619
  183DIO     H452232   8.304   9.700   4.609
  183DIO     H552233   8.303   9.806   4.185
  183DIO     H652234   8.912   9.556   4.514
  183DIO     H752235   8.924   9.634   4.082
  183DIO     H852236   9.081   9.446   4.271
  183DIO     H952237   9.117   9.753   4.470
  183DIO    H1052238   9.257   9.683   4.548
  183DIO    H1152239   9.315   9.851   4.366
  183DIO    H1252240   9.273   9.773   4.129
  183DIO    H1352241   9.126   9.809   4.218
  183DIO    H1452242   9.406   9.566   4.294
  183DIO    H1552243   9.482   9.716   4.244
  183DIO    H1652244   9.469   9.605   4.529
  183DIO    H1752245   9.608   9.610   4.422
  183DIO    H1852246   9.599   9.863   4.425
  183DIO    H1952247   9.468   9.853   4.545
  183DIO    H2052248   9.628   9.790   4.584
  184DIO     F152249   2.835   4.102   2.860
  184DIO     C152250   2.913   4.138   2.964
  184DIO     C252251   3.057   4.125   2.953
  184DIO     C352252   3.146   4.161   3.066
  184DIO     C452253   3.080   4.212   3.188
  184DIO     C552254   2.936   4.224   3.197
  184DIO     F252255   2.881   4.275   3.309
  184DIO     C652256   2.852   4.187   3.085
  184DIO     F352257   2.719   4.198   3.095
  184DIO     C752258   3.292   4.147   3.057
  184DIO     C852259   3.369   4.077   3.162
  184DIO     C952260   3.514   4.064   3.153
  184DIO    C1052261   3.587   4.129   3.046
  184DIO    C1152262   3.514   4.193   2.938
  184DIO    C1252263   3.370   4.203   2.945
  184DIO     F452264   3.305   4.268   2.845
  184DIO     O152265   3.719   4.093   3.031
  184DIO    C1352266   3.813   4.186   2.987
  184DIO     O252267   3.814   4.312   2.983
  184DIO    C1452268   3.943   4.124   2.956
  184DIO    C1552269   4.009   4.030   3.049
  184DIO     F552270   3.946   3.991   3.162
  184DIO    C1652271   4.140   3.973   3.022
  184DIO    C1752272   4.215   4.012   2.904
  184DIO    C1852273   4.147   4.091   2.803
  184DIO    C1952274   4.015   4.147   2.829
  184DIO     F652275   3.953   4.207   2.725
  184DIO    C2052276   4.356   3.963   2.881
  184DIO     O352277   4.426   3.929   3.001
  184DIO    C2152278   4.470   4.043   3.074
  184DIO    C2252279   4.558   4.132   2.987
  184DIO    C2352280   4.478   4.167   2.862
  184DIO     O452281   4.433   4.048   2.796
  184DIO    C2452282   4.691   4.064   2.947
  184DIO    C2552283   4.782   4.021   3.063
  184DIO    C2652284   4.820   4.134   3.157
  184DIO     H152285   3.100   4.088   2.860
  184DIO     H252286   3.141   4.249   3.271
  184DIO     H352287   3.318   4.029   3.244
  184DIO     H452288   3.569   4.005   3.226
  184DIO     H552289   3.569   4.237   2.855
  184DIO     H652290   4.178   3.897   3.090
  184DIO     H752291   4.190   4.105   2.704
  184DIO     H852292   4.346   3.868   2.826
  184DIO     H952293   4.383   4.099   3.110
  184DIO    H1052294   4.522   4.008   3.163
  184DIO    H1152295   4.581   4.224   3.041
  184DIO    H1252296   4.539   4.223   2.792
  184DIO    H1352297   4.392   4.230   2.888
  184DIO    H1452298   4.671   3.976   2.885
  184DIO    H1552299   4.748   4.133   2.884
  184DIO    H1652300   4.735   3.940   3.120
  184DIO    H1752301   4.874   3.978   3.020
  184DIO    H1852302   4.864   4.218   3.102
  184DIO    H1952303   4.734   4.171   3.213
  184DIO    H2052304   4.894   4.099   3.230
  185DIO     F152305   8.013   7.250   6.128
  185DIO     C152306   8.091   7.235   6.019
  185DIO     C252307   8.235   7.245   6.032
  185DIO     C352308   8.324   7.231   5.914
  185DIO     C452309   8.258   7.203   5.784
  185DIO     C552310   8.114   7.193   5.774
  185DIO     F252311   8.058   7.163   5.655
  185DIO     C652312   8.030   7.208   5.890
  185DIO     F352313   7.896   7.199   5.879
  185DIO     C752314   8.470   7.242   5.925
  185DIO     C852315   8.547   7.331   5.835
  185DIO     C952316   8.692   7.342   5.846
  185DIO    C1052317   8.764   7.258   5.939
  185DIO    C1152318   8.692   7.175   6.034
  185DIO    C1252319   8.548   7.166   6.025
  185DIO     F452320   8.483   7.085   6.111
  185DIO     O152321   8.897   7.291   5.961
  185DIO    C1352322   8.991   7.192   5.987
  185DIO     O252323   8.992   7.067   5.968
  185DIO    C1452324   9.120   7.247   6.029
  185DIO    C1552325   9.187   7.356   5.955
  185DIO     F552326   9.124   7.415   5.851
  185DIO    C1652327   9.317   7.408   5.992
  185DIO    C1752328   9.393   7.347   6.100
  185DIO    C1852329   9.324   7.250   6.186
  185DIO    C1952330   9.193   7.200   6.150
  185DIO     F652331   9.130   7.122   6.241
  185DIO    C2052332   9.534   7.391   6.132
  185DIO     O352333   9.604   7.447   6.020
  185DIO    C2152334   9.647   7.348   5.928
  185DIO    C2252335   9.736   7.245   5.997
  185DIO    C2352336   9.655   7.188   6.113
  185DIO     O452337   9.611   7.291   6.200
  185DIO    C2452338   9.869   7.304   6.049
  185DIO    C2552339   9.960   7.368   5.943
  185DIO    C2652340   9.998   7.274   5.830
  185DIO     H152341   8.277   7.264   6.130
  185DIO     H252342   8.319   7.182   5.697
  185DIO     H352343   8.496   7.393   5.763
  185DIO     H452344   8.747   7.413   5.786
  185DIO     H552345   8.746   7.117   6.107
  185DIO     H652346   9.355   7.494   5.939
  185DIO     H752347   9.367   7.219   6.280
  185DIO     H852348   9.524   7.474   6.204
  185DIO     H952349   9.561   7.299   5.882
  185DIO    H1052350   9.700   7.399   5.847
  185DIO    H1152351   9.759   7.164   5.926
  185DIO    H1252352   9.716   7.119   6.172
  185DIO    H1352353   9.569   7.130   6.077
  185DIO    H1452354   9.849   7.379   6.126
  185DIO    H1552355   9.925   7.224   6.098
  185DIO    H1652356   9.912   7.458   5.901
  185DIO    H1752357  10.051   7.402   5.993
  185DIO    H1852358  10.042   7.181   5.869
  185DIO    H1952359   9.911   7.248   5.768
  185DIO    H2052360  10.072   7.322   5.765
  186DIO     F152361   6.227   8.898   7.464
  186DIO     C152362   6.304   8.793   7.431
  186DIO     C252363   6.449   8.809   7.428
  186DIO     C352364   6.537   8.697   7.390
  186DIO     C452365   6.472   8.568   7.359
  186DIO     C552366   6.328   8.554   7.364
  186DIO     F252367   6.272   8.433   7.339
  186DIO     C652368   6.244   8.665   7.400
  186DIO     F352369   6.110   8.652   7.403
  186DIO     C752370   6.684   8.712   7.384
  186DIO     C852371   6.761   8.669   7.265
  186DIO     C952372   6.906   8.683   7.260
  186DIO    C1052373   6.978   8.731   7.376
  186DIO    C1152374   6.906   8.781   7.492
  186DIO    C1252375   6.762   8.769   7.496
  186DIO     F452376   6.697   8.812   7.606
  186DIO     O152377   7.110   8.765   7.356
  186DIO    C1352378   7.205   8.745   7.456
  186DIO     O252379   7.206   8.675   7.561
  186DIO    C1452380   7.334   8.808   7.425
  186DIO    C1552381   7.400   8.788   7.294
  186DIO     F552382   7.338   8.719   7.196
  186DIO    C1652383   7.531   8.843   7.264
  186DIO    C1752384   7.607   8.915   7.365
  186DIO    C1852385   7.538   8.950   7.489
  186DIO    C1952386   7.406   8.896   7.519
  186DIO     F652387   7.344   8.945   7.628
  186DIO    C2052388   7.748   8.963   7.339
  186DIO     O352389   7.817   8.886   7.240
  186DIO    C2152390   7.861   8.760   7.290
  186DIO    C2252391   7.950   8.777   7.413
  186DIO    C2352392   7.869   8.858   7.514
  186DIO     O452393   7.825   8.981   7.458
  186DIO    C2452394   8.083   8.850   7.381
  186DIO    C2552395   8.173   8.782   7.278
  186DIO    C2652396   8.212   8.639   7.315
  186DIO     H152397   6.491   8.906   7.453
  186DIO     H252398   6.532   8.479   7.340
  186DIO     H352399   6.709   8.630   7.178
  186DIO     H452400   6.961   8.659   7.170
  186DIO     H552401   6.960   8.822   7.576
  186DIO     H652402   7.569   8.832   7.163
  186DIO     H752403   7.581   9.022   7.558
  186DIO     H852404   7.738   9.063   7.295
  186DIO     H952405   7.774   8.697   7.314
  186DIO    H1052406   7.914   8.708   7.209
  186DIO    H1152407   7.972   8.679   7.456
  186DIO    H1252408   7.930   8.881   7.602
  186DIO    H1352409   7.783   8.800   7.550
  186DIO    H1452410   8.063   8.952   7.347
  186DIO    H1552411   8.139   8.860   7.475
  186DIO    H1652412   8.126   8.783   7.180
  186DIO    H1752413   8.265   8.841   7.269
  186DIO    H1852414   8.256   8.634   7.415
  186DIO    H1952415   8.125   8.572   7.312
  186DIO    H2052416   8.285   8.601   7.243
  187DIO     F152417   1.672   3.581   8.019
  187DIO     C152418   1.749   3.560   7.911
  187DIO     C252419   1.893   3.571   7.924
  187DIO     C352420   1.982   3.550   7.807
  187DIO     C452421   1.917   3.516   7.679
  187DIO     C552422   1.772   3.505   7.669
  187DIO     F252423   1.717   3.469   7.551
  187DIO     C652424   1.689   3.526   7.784
  187DIO     F352425   1.555   3.517   7.773
  187DIO     C752426   2.129   3.563   7.818
  187DIO     C852427   2.206   3.646   7.723
  187DIO     C952428   2.350   3.658   7.733
  187DIO    C1052429   2.423   3.579   7.831
  187DIO    C1152430   2.351   3.501   7.930
  187DIO    C1252431   2.206   3.492   7.921
  187DIO     F452432   2.142   3.415   8.011
  187DIO     O152433   2.555   3.612   7.850
  187DIO    C1352434   2.650   3.515   7.881
  187DIO     O252435   2.651   3.390   7.869
  187DIO    C1452436   2.779   3.572   7.921
  187DIO    C1552437   2.845   3.678   7.841
  187DIO     F552438   2.783   3.731   7.734
  187DIO    C1652439   2.976   3.731   7.875
  187DIO    C1752440   3.052   3.676   7.987
  187DIO    C1852441   2.983   3.584   8.077
  187DIO    C1952442   2.851   3.532   8.044
  187DIO     F652443   2.789   3.459   8.139
  187DIO    C2052444   3.192   3.722   8.016
  187DIO     O352445   3.262   3.772   7.902
  187DIO    C2152446   3.306   3.668   7.815
  187DIO    C2252447   3.395   3.569   7.889
  187DIO    C2352448   3.314   3.518   8.008
  187DIO     O452449   3.270   3.626   8.089
  187DIO    C2452450   3.528   3.631   7.937
  187DIO    C2552451   3.618   3.689   7.828
  187DIO    C2652452   3.657   3.589   7.720
  187DIO     H152453   1.936   3.595   8.020
  187DIO     H252454   1.977   3.490   7.592
  187DIO     H352455   2.154   3.704   7.648
  187DIO     H452456   2.406   3.726   7.669
  187DIO     H552457   2.405   3.447   8.006
  187DIO     H652458   3.014   3.814   7.817
  187DIO     H752459   3.026   3.557   8.173
  187DIO     H852460   3.183   3.808   8.084
  187DIO     H952461   3.219   3.617   7.771
  187DIO    H1052462   3.359   3.715   7.731
  187DIO    H1152463   3.417   3.484   7.823
  187DIO    H1252464   3.375   3.452   8.071
  187DIO    H1352465   3.228   3.459   7.974
  187DIO    H1452466   3.508   3.710   8.011
  187DIO    H1552467   3.584   3.553   7.991
  187DIO    H1652468   3.571   3.776   7.782
  187DIO    H1752469   3.710   3.726   7.876
  187DIO    H1852470   3.701   3.499   7.764
  187DIO    H1952471   3.570   3.560   7.660
  187DIO    H2052472   3.730   3.633   7.653
  188DIO     F152473   3.004   2.906   2.453
  188DIO     C152474   3.082   2.878   2.559
  188DIO     C252475   3.226   2.873   2.542
  188DIO     C352476   3.315   2.840   2.656
  188DIO     C452477   3.249   2.814   2.787
  188DIO     C552478   3.105   2.819   2.800
  188DIO     F252479   3.050   2.799   2.921
  188DIO     C652480   3.021   2.851   2.687
  188DIO     F352481   2.887   2.855   2.701
  188DIO     C752482   3.461   2.833   2.641
  188DIO     C852483   3.538   2.717   2.689
  188DIO     C952484   3.683   2.711   2.675
  188DIO    C1052485   3.756   2.825   2.623
  188DIO    C1152486   3.683   2.938   2.568
  188DIO    C1252487   3.539   2.943   2.580
  188DIO     F452488   3.474   3.051   2.533
  188DIO     O152489   3.888   2.803   2.590
  188DIO    C1352490   3.982   2.904   2.605
  188DIO     O252491   3.983   3.011   2.672
  188DIO    C1452492   4.111   2.871   2.544
  188DIO    C1552493   4.178   2.741   2.569
  188DIO     F552494   4.115   2.645   2.641
  188DIO    C1652495   4.308   2.708   2.515
  188DIO    C1752496   4.384   2.807   2.439
  188DIO    C1852497   4.315   2.929   2.399
  188DIO    C1952498   4.184   2.961   2.452
  188DIO     F652499   4.121   3.068   2.399
  188DIO    C2052500   4.525   2.778   2.392
  188DIO     O352501   4.595   2.683   2.473
  188DIO    C2152502   4.638   2.738   2.597
  188DIO    C2252503   4.727   2.859   2.575
  188DIO    C2352504   4.646   2.958   2.491
  188DIO     O452505   4.602   2.897   2.370
  188DIO    C2452506   4.860   2.825   2.504
  188DIO    C2552507   4.951   2.725   2.576
  188DIO    C2652508   4.989   2.767   2.717
  188DIO     H152509   3.269   2.894   2.445
  188DIO     H252510   3.310   2.799   2.875
  188DIO     H352511   3.487   2.631   2.731
  188DIO     H452512   3.738   2.622   2.702
  188DIO     H552513   3.737   3.021   2.524
  188DIO     H652514   4.347   2.608   2.530
  188DIO     H752515   4.358   2.995   2.325
  188DIO     H852516   4.515   2.731   2.294
  188DIO     H952517   4.552   2.764   2.659
  188DIO    H1052518   4.691   2.659   2.652
  188DIO    H1152519   4.750   2.906   2.672
  188DIO    H1252520   4.708   3.045   2.464
  188DIO    H1352521   4.560   2.996   2.547
  188DIO    H1452522   4.840   2.787   2.403
  188DIO    H1552523   4.916   2.919   2.490
  188DIO    H1652524   4.903   2.626   2.578
  188DIO    H1752525   5.042   2.713   2.517
  188DIO    H1852526   5.033   2.867   2.718
  188DIO    H1952527   4.903   2.766   2.784
  188DIO    H2052528   5.063   2.697   2.758
  189DIO     F152529   6.639   3.111   4.144
  189DIO     C152530   6.717   3.124   4.253
  189DIO     C252531   6.861   3.114   4.239
  189DIO     C352532   6.950   3.125   4.357
  189DIO     C452533   6.884   3.150   4.488
  189DIO     C552534   6.740   3.160   4.498
  189DIO     F252535   6.685   3.187   4.618
  189DIO     C652536   6.656   3.148   4.382
  189DIO     F352537   6.523   3.156   4.393
  189DIO     C752538   7.096   3.114   4.346
  189DIO     C852539   7.173   3.023   4.434
  189DIO     C952540   7.318   3.013   4.423
  189DIO    C1052541   7.391   3.099   4.332
  189DIO    C1152542   7.318   3.184   4.238
  189DIO    C1252543   7.174   3.192   4.248
  189DIO     F452544   7.109   3.276   4.164
  189DIO     O152545   7.523   3.067   4.309
  189DIO    C1352546   7.617   3.166   4.286
  189DIO     O252547   7.618   3.290   4.307
  189DIO    C1452548   7.746   3.112   4.242
  189DIO    C1552549   7.813   3.001   4.313
  189DIO     F552550   7.750   2.940   4.416
  189DIO    C1652551   7.944   2.950   4.276
  189DIO    C1752552   8.019   3.014   4.169
  189DIO    C1852553   7.951   3.112   4.086
  189DIO    C1952554   7.819   3.161   4.122
  189DIO     F652555   7.756   3.241   4.033
  189DIO    C2052556   8.160   2.970   4.136
  189DIO     O352557   8.230   2.912   4.246
  189DIO    C2152558   8.273   3.009   4.341
  189DIO    C2252559   8.362   3.113   4.275
  189DIO    C2352560   8.282   3.173   4.159
  189DIO     O452561   8.237   3.071   4.070
  189DIO    C2452562   8.495   3.055   4.221
  189DIO    C2552563   8.586   2.989   4.326
  189DIO    C2652564   8.624   3.081   4.441
  189DIO     H152565   6.904   3.097   4.141
  189DIO     H252566   6.945   3.169   4.576
  189DIO     H352567   7.122   2.960   4.504
  189DIO     H452568   7.373   2.940   4.482
  189DIO     H552569   7.373   3.244   4.167
  189DIO     H652570   7.982   2.863   4.327
  189DIO     H752571   7.993   3.146   3.992
  189DIO     H852572   8.150   2.889   4.062
  189DIO     H952573   8.187   3.056   4.388
  189DIO    H1052574   8.326   2.956   4.421
  189DIO    H1152575   8.385   3.193   4.346
  189DIO    H1252576   8.343   3.243   4.102
  189DIO    H1352577   8.195   3.229   4.197
  189DIO    H1452578   8.475   2.981   4.142
  189DIO    H1552579   8.552   3.136   4.173
  189DIO    H1652580   8.538   2.898   4.365
  189DIO    H1752581   8.678   2.956   4.275
  189DIO    H1852582   8.668   3.174   4.404
  189DIO    H1952583   8.538   3.105   4.503
  189DIO    H2052584   8.698   3.031   4.505
  190DIO     F152585   4.961   5.485   5.179
  190DIO     C152586   5.038   5.446   5.282
  190DIO     C252587   5.182   5.443   5.265
  190DIO     C352588   5.271   5.399   5.375
  190DIO     C452589   5.206   5.360   5.502
  190DIO     C552590   5.061   5.363   5.516
  190DIO     F252591   5.006   5.331   5.635
  190DIO     C652592   4.978   5.407   5.407
  190DIO     F352593   4.844   5.409   5.421
  190DIO     C752594   5.418   5.394   5.360
  190DIO     C852595   5.495   5.273   5.395
  190DIO     C952596   5.639   5.268   5.381
  190DIO    C1052597   5.712   5.387   5.340
  190DIO    C1152598   5.640   5.506   5.297
  190DIO    C1252599   5.495   5.509   5.309
  190DIO     F452600   5.431   5.622   5.274
  190DIO     O152601   5.844   5.369   5.305
  190DIO    C1352602   5.939   5.468   5.331
  190DIO     O252603   5.940   5.568   5.408
  190DIO    C1452604   6.068   5.441   5.267
  190DIO    C1552605   6.134   5.309   5.278
  190DIO     F552606   6.072   5.207   5.341
  190DIO    C1652607   6.265   5.282   5.221
  190DIO    C1752608   6.341   5.388   5.156
  190DIO    C1852609   6.272   5.514   5.129
  190DIO    C1952610   6.140   5.540   5.184
  190DIO     F652611   6.078   5.652   5.143
  190DIO    C2052612   6.481   5.364   5.106
  190DIO     O352613   6.551   5.261   5.177
  190DIO    C2152614   6.595   5.303   5.306
  190DIO    C2252615   6.684   5.427   5.296
  190DIO    C2352616   6.603   5.533   5.222
  190DIO     O452617   6.559   5.485   5.096
  190DIO    C2452618   6.817   5.400   5.222
  190DIO    C2552619   6.907   5.293   5.283
  190DIO    C2652620   6.946   5.320   5.428
  190DIO     H152621   5.225   5.475   5.171
  190DIO     H252622   5.266   5.336   5.589
  190DIO     H352623   5.443   5.183   5.428
  190DIO     H452624   5.695   5.177   5.399
  190DIO     H552625   5.694   5.592   5.262
  190DIO     H652626   6.303   5.181   5.226
  190DIO     H752627   6.315   5.587   5.062
  190DIO     H852628   6.472   5.327   5.004
  190DIO     H952629   6.508   5.323   5.370
  190DIO    H1052630   6.648   5.219   5.352
  190DIO    H1152631   6.706   5.463   5.397
  190DIO    H1252632   6.664   5.622   5.204
  190DIO    H1352633   6.517   5.565   5.282
  190DIO    H1452634   6.797   5.372   5.118
  190DIO    H1552635   6.873   5.494   5.218
  190DIO    H1652636   6.860   5.194   5.276
  190DIO    H1752637   6.999   5.287   5.223
  190DIO    H1852638   6.990   5.420   5.439
  190DIO    H1952639   6.859   5.313   5.494
  190DIO    H2052640   7.019   5.246   5.462
  191DIO     F152641   1.922   0.547   7.453
  191DIO     C152642   1.999   0.512   7.349
  191DIO     C252643   2.144   0.525   7.360
  191DIO     C352644   2.232   0.490   7.247
  191DIO     C452645   2.167   0.439   7.124
  191DIO     C552646   2.023   0.427   7.115
  191DIO     F252647   1.967   0.377   7.003
  191DIO     C652648   1.939   0.463   7.227
  191DIO     F352649   1.805   0.453   7.218
  191DIO     C752650   2.379   0.503   7.256
  191DIO     C852651   2.456   0.574   7.151
  191DIO     C952652   2.601   0.587   7.160
  191DIO    C1052653   2.673   0.521   7.267
  191DIO    C1152654   2.601   0.457   7.375
  191DIO    C1252655   2.457   0.446   7.368
  191DIO     F452656   2.392   0.382   7.467
  191DIO     O152657   2.805   0.557   7.282
  191DIO    C1352658   2.900   0.464   7.325
  191DIO     O252659   2.901   0.338   7.329
  191DIO    C1452660   3.029   0.526   7.357
  191DIO    C1552661   3.095   0.621   7.265
  191DIO     F552662   3.033   0.660   7.152
  191DIO    C1652663   3.226   0.678   7.291
  191DIO    C1752664   3.302   0.637   7.409
  191DIO    C1852665   3.233   0.558   7.510
  191DIO    C1952666   3.101   0.502   7.484
  191DIO     F652667   3.039   0.442   7.587
  191DIO    C2052668   3.443   0.687   7.433
  191DIO     O352669   3.512   0.722   7.312
  191DIO    C2152670   3.556   0.608   7.239
  191DIO    C2252671   3.645   0.518   7.325
  191DIO    C2352672   3.564   0.483   7.450
  191DIO     O452673   3.520   0.601   7.517
  191DIO    C2452674   3.778   0.586   7.366
  191DIO    C2552675   3.868   0.630   7.250
  191DIO    C2652676   3.907   0.517   7.156
  191DIO     H152677   2.186   0.561   7.453
  191DIO     H252678   2.227   0.403   7.042
  191DIO     H352679   2.404   0.622   7.069
  191DIO     H452680   2.656   0.646   7.088
  191DIO     H552681   2.655   0.412   7.457
  191DIO     H652682   3.264   0.753   7.224
  191DIO     H752683   3.276   0.543   7.609
  191DIO     H852684   3.433   0.781   7.488
  191DIO     H952685   3.469   0.552   7.203
  191DIO    H1052686   3.609   0.643   7.150
  191DIO    H1152687   3.667   0.426   7.271
  191DIO    H1252688   3.625   0.426   7.521
  191DIO    H1352689   3.478   0.420   7.425
  191DIO    H1452690   3.758   0.674   7.428
  191DIO    H1552691   3.834   0.516   7.429
  191DIO    H1652692   3.821   0.711   7.194
  191DIO    H1752693   3.960   0.672   7.293
  191DIO    H1852694   3.951   0.433   7.211
  191DIO    H1952695   3.820   0.480   7.100
  191DIO    H2052696   3.980   0.553   7.083
  192DIO     F152697   5.738   2.157   8.281
  192DIO     C152698   5.815   2.196   8.384
  192DIO     C252699   5.959   2.183   8.374
  192DIO     C352700   6.048   2.222   8.485
  192DIO     C452701   5.983   2.277   8.606
  192DIO     C552702   5.838   2.289   8.615
  192DIO     F252703   5.783   2.343   8.725
  192DIO     C652704   5.755   2.249   8.504
  192DIO     F352705   5.621   2.260   8.513
  192DIO     C752706   6.194   2.208   8.477
  192DIO     C852707   6.272   2.141   8.584
  192DIO     C952708   6.416   2.128   8.576
  192DIO    C1052709   6.489   2.190   8.467
  192DIO    C1152710   6.416   2.250   8.356
  192DIO    C1252711   6.272   2.261   8.363
  192DIO     F452712   6.207   2.322   8.262
  192DIO     O152713   6.621   2.153   8.453
  192DIO    C1352714   6.716   2.245   8.406
  192DIO     O252715   6.716   2.370   8.398
  192DIO    C1452716   6.845   2.182   8.376
  192DIO    C1552717   6.911   2.090   8.472
  192DIO     F552718   6.848   2.055   8.586
  192DIO    C1652719   7.042   2.033   8.448
  192DIO    C1752720   7.118   2.069   8.328
  192DIO    C1852721   7.049   2.145   8.224
  192DIO    C1952722   6.917   2.201   8.249
  192DIO     F652723   6.855   2.258   8.143
  192DIO    C2052724   7.258   2.018   8.307
  192DIO     O352725   7.328   1.988   8.428
  192DIO    C2152726   7.372   2.104   8.497
  192DIO    C2252727   7.461   2.191   8.408
  192DIO    C2352728   7.380   2.222   8.282
  192DIO     O452729   7.336   2.102   8.219
  192DIO    C2452730   7.593   2.121   8.370
  192DIO    C2552731   7.684   2.082   8.487
  192DIO    C2652732   7.722   2.198   8.577
  192DIO     H152733   6.002   2.143   8.282
  192DIO     H252734   6.043   2.316   8.687
  192DIO     H352735   6.220   2.095   8.667
  192DIO     H452736   6.471   2.071   8.650
  192DIO     H552737   6.471   2.292   8.272
  192DIO     H652738   7.080   1.959   8.518
  192DIO     H752739   7.092   2.156   8.126
  192DIO     H852740   7.249   1.922   8.254
  192DIO     H952741   7.285   2.162   8.532
  192DIO    H1052742   7.424   2.072   8.587
  192DIO    H1152743   7.483   2.285   8.459
  192DIO    H1252744   7.441   2.276   8.209
  192DIO    H1352745   7.294   2.285   8.305
  192DIO    H1452746   7.573   2.031   8.310
  192DIO    H1552747   7.650   2.189   8.304
  192DIO    H1652748   7.637   2.003   8.546
  192DIO    H1752749   7.776   2.038   8.445
  192DIO    H1852750   7.766   2.280   8.519
  192DIO    H1952751   7.636   2.236   8.632
  192DIO    H2052752   7.796   2.165   8.651
  193DIO     F152753   1.898   3.667   9.077
  193DIO     C152754   1.976   3.677   9.187
  193DIO     C252755   2.120   3.667   9.173
  193DIO     C352756   2.209   3.675   9.291
  193DIO     C452757   2.143   3.696   9.422
  193DIO     C552758   1.999   3.705   9.433
  193DIO     F252759   1.944   3.729   9.554
  193DIO     C652760   1.915   3.697   9.316
  193DIO     F352761   1.781   3.705   9.328
  193DIO     C752762   2.355   3.664   9.279
  193DIO     C852763   2.432   3.571   9.364
  193DIO     C952764   2.577   3.560   9.353
  193DIO    C1052765   2.650   3.649   9.265
  193DIO    C1152766   2.577   3.737   9.174
  193DIO    C1252767   2.433   3.745   9.183
  193DIO     F452768   2.368   3.831   9.102
  193DIO     O152769   2.782   3.618   9.241
  193DIO    C1352770   2.876   3.718   9.221
  193DIO     O252771   2.877   3.841   9.246
  193DIO    C1452772   3.005   3.665   9.175
  193DIO    C1552773   3.072   3.552   9.243
  193DIO     F552774   3.009   3.488   9.344
  193DIO    C1652775   3.202   3.503   9.204
  193DIO    C1752776   3.278   3.569   9.099
  193DIO    C1852777   3.209   3.670   9.019
  193DIO    C1952778   3.078   3.718   9.057
  193DIO     F652779   3.015   3.801   8.971
  193DIO    C2052780   3.419   3.526   9.065
  193DIO     O352781   3.489   3.465   9.174
  193DIO    C2152782   3.532   3.559   9.271
  193DIO    C2252783   3.621   3.666   9.208
  193DIO    C2352784   3.540   3.729   9.095
  193DIO     O452785   3.496   3.630   9.003
  193DIO    C2452786   3.754   3.609   9.153
  193DIO    C2552787   3.845   3.540   9.255
  193DIO    C2652788   3.883   3.628   9.373
  193DIO     H152789   2.163   3.653   9.074
  193DIO     H252790   2.204   3.712   9.511
  193DIO     H352791   2.381   3.505   9.433
  193DIO     H452792   2.632   3.486   9.410
  193DIO     H552793   2.631   3.799   9.104
  193DIO     H652794   3.241   3.414   9.253
  193DIO     H752795   3.252   3.707   8.927
  193DIO     H852796   3.409   3.448   8.989
  193DIO     H952797   3.446   3.605   9.320
  193DIO    H1052798   3.585   3.504   9.349
  193DIO    H1152799   3.644   3.743   9.282
  193DIO    H1252800   3.602   3.801   9.039
  193DIO    H1352801   3.454   3.784   9.134
  193DIO    H1452802   3.734   3.538   9.072
  193DIO    H1552803   3.810   3.692   9.108
  193DIO    H1652804   3.797   3.448   9.292
  193DIO    H1752805   3.936   3.508   9.204
  193DIO    H1852806   3.927   3.722   9.339
  193DIO    H1952807   3.797   3.650   9.436
  193DIO    H2052808   3.957   3.576   9.436
  194DIO     F152809   6.507   0.218   8.872
  194DIO     C152810   6.585   0.327   8.856
  194DIO     C252811   6.729   0.314   8.866
  194DIO     C352812   6.818   0.431   8.851
  194DIO     C452813   6.752   0.561   8.822
  194DIO     C552814   6.608   0.571   8.812
  194DIO     F252815   6.552   0.690   8.782
  194DIO     C652816   6.524   0.455   8.828
  194DIO     F352817   6.390   0.466   8.819
  194DIO     C752818   6.964   0.420   8.863
  194DIO     C852819   7.041   0.511   8.951
  194DIO     C952820   7.186   0.500   8.962
  194DIO    C1052821   7.258   0.406   8.878
  194DIO    C1152822   7.186   0.311   8.796
  194DIO    C1252823   7.042   0.320   8.788
  194DIO     F452824   6.977   0.233   8.707
  194DIO     O152825   7.391   0.385   8.911
  194DIO    C1352826   7.485   0.358   8.812
  194DIO     O252827   7.486   0.376   8.688
  194DIO    C1452828   7.614   0.316   8.868
  194DIO    C1552829   7.680   0.391   8.977
  194DIO     F552830   7.618   0.496   9.035
  194DIO    C1652831   7.811   0.355   9.028
  194DIO    C1752832   7.887   0.246   8.968
  194DIO    C1852833   7.818   0.160   8.873
  194DIO    C1952834   7.687   0.196   8.822
  194DIO     F652835   7.624   0.104   8.745
  194DIO    C2052836   8.028   0.214   9.013
  194DIO     O352837   8.097   0.327   9.068
  194DIO    C2152838   8.141   0.418   8.968
  194DIO    C2252839   8.230   0.349   8.866
  194DIO    C2352840   8.149   0.232   8.809
  194DIO     O452841   8.105   0.146   8.914
  194DIO    C2452842   8.363   0.297   8.925
  194DIO    C2552843   8.453   0.404   8.988
  194DIO    C2652844   8.492   0.516   8.893
  194DIO     H152845   6.771   0.216   8.886
  194DIO     H252846   6.813   0.648   8.800
  194DIO     H352847   6.990   0.583   9.012
  194DIO     H452848   7.241   0.561   9.032
  194DIO     H552849   7.240   0.237   8.739
  194DIO     H652850   7.849   0.409   9.114
  194DIO     H752851   7.861   0.066   8.842
  194DIO     H852852   8.018   0.143   9.096
  194DIO     H952853   8.054   0.464   8.919
  194DIO    H1052854   8.194   0.500   9.018
  194DIO    H1152855   8.253   0.419   8.784
  194DIO    H1252856   8.210   0.172   8.741
  194DIO    H1352857   8.063   0.268   8.752
  194DIO    H1452858   8.343   0.221   9.001
  194DIO    H1552859   8.419   0.247   8.846
  194DIO    H1652860   8.406   0.446   9.078
  194DIO    H1752861   8.545   0.354   9.023
  194DIO    H1852862   8.536   0.477   8.801
  194DIO    H1952863   8.405   0.578   8.867
  194DIO    H2052864   8.566   0.582   8.941
  195DIO     F152865   1.589   0.125   8.357
  195DIO     C152866   1.667   0.234   8.376
  195DIO     C252867   1.811   0.218   8.382
  195DIO     C352868   1.900   0.334   8.406
  195DIO     C452869   1.834   0.466   8.421
  195DIO     C552870   1.690   0.479   8.414
  195DIO     F252871   1.634   0.601   8.424
  195DIO     C652872   1.606   0.364   8.392
  195DIO     F352873   1.472   0.377   8.387
  195DIO     C752874   2.046   0.319   8.413
  195DIO     C852875   2.123   0.377   8.526
  195DIO     C952876   2.268   0.363   8.533
  195DIO    C1052877   2.340   0.301   8.424
  195DIO    C1152878   2.268   0.237   8.315
  195DIO    C1252879   2.124   0.249   8.309
  195DIO     F452880   2.059   0.193   8.205
  195DIO     O152881   2.473   0.271   8.448
  195DIO    C1352882   2.567   0.277   8.346
  195DIO     O252883   2.568   0.335   8.234
  195DIO    C1452884   2.696   0.220   8.384
  195DIO    C1552885   2.762   0.255   8.512
  195DIO     F552886   2.700   0.335   8.601
  195DIO    C1652887   2.893   0.204   8.549
  195DIO    C1752888   2.969   0.120   8.457
  195DIO    C1852889   2.900   0.070   8.338
  195DIO    C1952890   2.769   0.120   8.302
  195DIO     F652891   2.706   0.058   8.200
  195DIO    C2052892   3.110   0.076   8.489
  195DIO     O352893   3.179   0.165   8.577
  195DIO    C2152894   3.223   0.284   8.513
  195DIO    C2252895   3.312   0.251   8.393
  195DIO    C2352896   3.231   0.159   8.302
  195DIO     O452897   3.187   0.044   8.373
  195DIO    C2452898   3.445   0.183   8.433
  195DIO    C2552899   3.535   0.263   8.527
  195DIO    C2652900   3.574   0.400   8.473
  195DIO     H152901   1.853   0.119   8.369
  195DIO     H252902   1.895   0.555   8.428
  195DIO     H352903   2.072   0.425   8.608
  195DIO     H452904   2.323   0.398   8.619
  195DIO     H552905   2.322   0.187   8.237
  195DIO     H652906   2.931   0.227   8.648
  195DIO     H752907   2.943  -0.009   8.278
  195DIO     H852908   3.100  -0.018   8.544
  195DIO     H952909   3.136   0.343   8.481
  195DIO    H1052910   3.276   0.344   8.586
  195DIO    H1152911   3.335   0.343   8.338
  195DIO    H1252912   3.292   0.125   8.218
  195DIO    H1352913   3.145   0.212   8.259
  195DIO    H1452914   3.425   0.086   8.480
  195DIO    H1552915   3.501   0.161   8.341
  195DIO    H1652916   3.488   0.274   8.625
  195DIO    H1752917   3.627   0.205   8.543
  195DIO    H1852918   3.618   0.393   8.373
  195DIO    H1952919   3.487   0.467   8.468
  195DIO    H2052920   3.648   0.447   8.540
  196DIO     F152921   2.625   9.396   4.710
  196DIO     C152922   2.703   9.499   4.748
  196DIO     C252923   2.847   9.482   4.751
  196DIO     C352924   2.936   9.593   4.794
  196DIO     C452925   2.870   9.720   4.832
  196DIO     C552926   2.726   9.734   4.828
  196DIO     F252927   2.671   9.853   4.858
  196DIO     C652928   2.642   9.624   4.786
  196DIO     F352929   2.508   9.638   4.784
  196DIO     C752930   3.082   9.577   4.799
  196DIO     C852931   3.159   9.614   4.920
  196DIO     C952932   3.304   9.600   4.925
  196DIO    C1052933   3.377   9.558   4.806
  196DIO    C1152934   3.304   9.513   4.689
  196DIO    C1252935   3.160   9.525   4.685
  196DIO     F452936   3.095   9.488   4.573
  196DIO     O152937   3.509   9.523   4.825
  196DIO    C1352938   3.603   9.547   4.725
  196DIO     O252939   3.604   9.623   4.625
  196DIO    C1452940   3.732   9.484   4.754
  196DIO    C1552941   3.799   9.497   4.885
  196DIO     F552942   3.736   9.561   4.987
  196DIO    C1652943   3.929   9.441   4.913
  196DIO    C1752944   4.005   9.374   4.808
  196DIO    C1852945   3.936   9.344   4.683
  196DIO    C1952946   3.805   9.400   4.656
  196DIO     F652947   3.742   9.357   4.544
  196DIO    C2052948   4.146   9.324   4.832
  196DIO     O352949   4.216   9.397   4.934
  196DIO    C2152950   4.259   9.525   4.891
  196DIO    C2252951   4.348   9.513   4.768
  196DIO    C2352952   4.267   9.438   4.662
  196DIO     O452953   4.223   9.312   4.712
  196DIO    C2452954   4.481   9.439   4.795
  196DIO    C2552955   4.572   9.502   4.901
  196DIO    C2652956   4.610   9.646   4.872
  196DIO     H152957   2.890   9.387   4.721
  196DIO     H252958   2.931   9.807   4.854
  196DIO     H352959   3.108   9.648   5.009
  196DIO     H452960   3.359   9.619   5.016
  196DIO     H552961   3.358   9.477   4.603
  196DIO     H652962   3.968   9.446   5.015
  196DIO     H752963   3.979   9.277   4.610
  196DIO     H852964   4.136   9.222   4.871
  196DIO     H952965   4.173   9.588   4.870
  196DIO    H1052966   4.312   9.572   4.974
  196DIO    H1152967   4.371   9.614   4.730
  196DIO    H1252968   4.329   9.419   4.573
  196DIO    H1352969   4.181   9.497   4.629
  196DIO    H1452970   4.461   9.336   4.825
  196DIO    H1552971   4.537   9.434   4.701
  196DIO    H1652972   4.524   9.496   5.000
  196DIO    H1752973   4.663   9.442   4.908
  196DIO    H1852974   4.654   9.656   4.772
  196DIO    H1952975   4.524   9.713   4.879
  196DIO    H2052976   4.684   9.681   4.945
  197DIO     F152977   2.414   6.476   1.778
  197DIO     C152978   2.491   6.481   1.888
  197DIO     C252979   2.635   6.472   1.874
  197DIO     C352980   2.724   6.475   1.992
  197DIO     C452981   2.659   6.490   2.124
  197DIO     C552982   2.514   6.499   2.136
  197DIO     F252983   2.459   6.517   2.257
  197DIO     C652984   2.431   6.495   2.018
  197DIO     F352985   2.297   6.503   2.031
  197DIO     C752986   2.871   6.464   1.980
  197DIO     C852987   2.948   6.368   2.061
  197DIO     C952988   3.092   6.358   2.050
  197DIO    C1052989   3.165   6.450   1.965
  197DIO    C1152990   3.093   6.541   1.878
  197DIO    C1252991   2.948   6.549   1.888
  197DIO     F452992   2.884   6.639   1.810
  197DIO     O152993   3.297   6.420   1.940
  197DIO    C1352994   3.392   6.521   1.924
  197DIO     O252995   3.393   6.643   1.955
  197DIO    C1452996   3.521   6.470   1.876
  197DIO    C1552997   3.587   6.354   1.940
  197DIO     F552998   3.525   6.285   2.038
  197DIO    C1652999   3.718   6.306   1.899
  197DIO    C1753000   3.794   6.377   1.796
  197DIO    C1853001   3.725   6.481   1.721
  197DIO    C1953002   3.593   6.527   1.761
  197DIO     F653003   3.531   6.614   1.678
  197DIO    C2053004   3.934   6.336   1.760
  197DIO     O353005   4.004   6.270   1.866
  197DIO    C2153006   4.048   6.359   1.968
  197DIO    C2253007   4.137   6.469   1.909
  197DIO    C2353008   4.056   6.537   1.799
  197DIO     O453009   4.012   6.441   1.702
  197DIO    C2453010   4.270   6.415   1.852
  197DIO    C2553011   4.360   6.341   1.951
  197DIO    C2653012   4.399   6.424   2.072
  197DIO     H153013   2.678   6.462   1.775
  197DIO     H253014   2.719   6.503   2.214
  197DIO     H353015   2.896   6.299   2.127
  197DIO     H453016   3.148   6.281   2.103
  197DIO     H553017   3.147   6.606   1.811
  197DIO     H653018   3.756   6.215   1.943
  197DIO     H753019   3.768   6.522   1.630
  197DIO     H853020   3.925   6.260   1.681
  197DIO     H953021   3.961   6.403   2.018
  197DIO    H1053022   4.101   6.301   2.044
  197DIO    H1153023   4.159   6.543   1.987
  197DIO    H1253024   4.117   6.611   1.746
  197DIO    H1353025   3.970   6.590   1.840
  197DIO    H1453026   4.250   6.347   1.768
  197DIO    H1553027   4.326   6.499   1.810
  197DIO    H1653028   4.313   6.248   1.984
  197DIO    H1753029   4.452   6.312   1.898
  197DIO    H1853030   4.443   6.520   2.043
  197DIO    H1953031   4.312   6.444   2.136
  197DIO    H2053032   4.472   6.370   2.133
  198DIO     F153033   6.344   1.902   2.047
  198DIO     C153034   6.422   1.793   2.031
  198DIO     C253035   6.566   1.809   2.024
  198DIO     C353036   6.655   1.692   2.004
  198DIO     C453037   6.589   1.560   1.993
  198DIO     C553038   6.445   1.547   1.999
  198DIO     F253039   6.389   1.424   1.993
  198DIO     C653040   6.361   1.663   2.019
  198DIO     F353041   6.227   1.649   2.024
  198DIO     C753042   6.801   1.706   1.996
  198DIO     C853043   6.878   1.646   1.885
  198DIO     C953044   7.023   1.659   1.878
  198DIO    C1053045   7.095   1.724   1.985
  198DIO    C1153046   7.023   1.791   2.092
  198DIO    C1253047   6.879   1.780   2.098
  198DIO     F453048   6.814   1.838   2.201
  198DIO     O153049   7.228   1.754   1.960
  198DIO    C1353050   7.322   1.750   2.063
  198DIO     O253051   7.323   1.696   2.176
  198DIO    C1453052   7.451   1.807   2.022
  198DIO    C1553053   7.518   1.768   1.896
  198DIO     F553054   7.455   1.685   1.809
  198DIO    C1653055   7.648   1.818   1.857
  198DIO    C1753056   7.724   1.904   1.947
  198DIO    C1853057   7.655   1.958   2.064
  198DIO    C1953058   7.524   1.909   2.102
  198DIO     F653059   7.461   1.973   2.202
  198DIO    C2053060   7.865   1.948   1.914
  198DIO     O353061   7.935   1.857   1.828
  198DIO    C2153062   7.978   1.739   1.896
  198DIO    C2253063   8.067   1.775   2.015
  198DIO    C2353064   7.986   1.870   2.103
  198DIO     O453065   7.942   1.983   2.029
  198DIO    C2453066   8.200   1.842   1.973
  198DIO    C2553067   8.291   1.759   1.881
  198DIO    C2653068   8.329   1.624   1.938
  198DIO     H153069   6.608   1.908   2.035
  198DIO     H253070   6.650   1.470   1.988
  198DIO     H353071   6.827   1.595   1.805
  198DIO     H453072   7.078   1.622   1.792
  198DIO     H553073   7.077   1.844   2.169
  198DIO     H653074   7.686   1.792   1.759
  198DIO     H753075   7.698   2.038   2.122
  198DIO     H853076   7.855   2.040   1.856
  198DIO     H953077   7.892   1.681   1.929
  198DIO    H1053078   8.031   1.676   1.824
  198DIO    H1153079   8.090   1.684   2.072
  198DIO    H1253080   8.047   1.907   2.186
  198DIO    H1353081   7.900   1.818   2.147
  198DIO    H1453082   8.180   1.938   1.923
  198DIO    H1553083   8.256   1.866   2.064
  198DIO    H1653084   8.243   1.746   1.783
  198DIO    H1753085   8.382   1.817   1.863
  198DIO    H1853086   8.373   1.634   2.038
  198DIO    H1953087   8.242   1.557   1.945
  198DIO    H2053088   8.403   1.575   1.874
  199DIO     F153089   0.188   7.322   0.969
  199DIO     C153090   0.266   7.429   0.941
  199DIO     C253091   0.410   7.417   0.953
  199DIO     C353092   0.498   7.532   0.925
  199DIO     C453093   0.433   7.658   0.882
  199DIO     C553094   0.289   7.667   0.871
  199DIO     F253095   0.233   7.782   0.828
  199DIO     C653096   0.205   7.553   0.900
  199DIO     F353097   0.071   7.563   0.890
  199DIO     C753098   0.645   7.522   0.938
  199DIO     C853099   0.722   7.622   1.015
  199DIO     C953100   0.867   7.613   1.027
  199DIO    C1053101   0.939   7.510   0.955
  199DIO    C1153102   0.867   7.406   0.884
  199DIO    C1253103   0.723   7.414   0.874
  199DIO     F453104   0.658   7.319   0.803
  199DIO     O153105   1.071   7.493   0.990
  199DIO    C1353106   1.166   7.455   0.894
  199DIO     O253107   1.167   7.460   0.769
  199DIO    C1453108   1.295   7.419   0.954
  199DIO    C1553109   1.361   7.506   1.054
  199DIO     F553110   1.299   7.616   1.101
  199DIO    C1653111   1.492   7.476   1.110
  199DIO    C1753112   1.568   7.360   1.062
  199DIO    C1853113   1.499   7.265   0.976
  199DIO    C1953114   1.368   7.294   0.922
  199DIO     F653115   1.305   7.195   0.855
  199DIO    C2053116   1.709   7.334   1.110
  199DIO     O353117   1.778   7.452   1.152
  199DIO    C2153118   1.822   7.532   1.043
  199DIO    C2253119   1.911   7.452   0.948
  199DIO    C2353120   1.830   7.329   0.905
  199DIO     O453121   1.786   7.255   1.018
  199DIO    C2453122   2.044   7.407   1.013
  199DIO    C2553123   2.134   7.519   1.064
  199DIO    C2653124   2.173   7.621   0.958
  199DIO     H153125   0.452   7.322   0.983
  199DIO     H253126   0.494   7.742   0.851
  199DIO     H353127   0.670   7.700   1.069
  199DIO     H453128   0.922   7.680   1.091
  199DIO     H553129   0.921   7.327   0.834
  199DIO     H653130   1.530   7.538   1.189
  199DIO     H753131   1.542   7.167   0.955
  199DIO     H853132   1.699   7.272   1.200
  199DIO     H953133   1.735   7.572   0.989
  199DIO    H1053134   1.875   7.618   1.084
  199DIO    H1153135   1.933   7.512   0.860
  199DIO    H1253136   1.891   7.263   0.843
  199DIO    H1353137   1.744   7.359   0.844
  199DIO    H1453138   2.024   7.339   1.097
  199DIO    H1553139   2.100   7.348   0.940
  199DIO    H1653140   2.087   7.571   1.149
  199DIO    H1753141   2.226   7.474   1.104
  199DIO    H1853142   2.217   7.572   0.871
  199DIO    H1953143   2.086   7.679   0.925
  199DIO    H2053144   2.246   7.691   0.998
  200DIO     F153145   2.935   6.541   2.510
  200DIO     C153146   3.013   6.525   2.619
  200DIO     C253147   3.157   6.519   2.603
  200DIO     C353148   3.246   6.499   2.720
  200DIO     C453149   3.180   6.489   2.852
  200DIO     C553150   3.036   6.496   2.865
  200DIO     F253151   2.981   6.490   2.988
  200DIO     C653152   2.952   6.514   2.749
  200DIO     F353153   2.818   6.519   2.763
  200DIO     C753154   3.392   6.491   2.706
  200DIO     C853155   3.469   6.381   2.767
  200DIO     C953156   3.614   6.373   2.754
  200DIO    C1053157   3.687   6.480   2.688
  200DIO    C1153158   3.614   6.587   2.621
  200DIO    C1253159   3.470   6.593   2.632
  200DIO     F453160   3.405   6.695   2.573
  200DIO     O153161   3.819   6.455   2.658
  200DIO    C1353162   3.913   6.557   2.662
  200DIO     O253163   3.914   6.671   2.715
  200DIO    C1453164   4.042   6.517   2.605
  200DIO    C1553165   4.109   6.391   2.645
  200DIO     F553166   4.046   6.305   2.728
  200DIO    C1653167   4.239   6.352   2.596
  200DIO    C1753168   4.315   6.441   2.509
  200DIO    C1853169   4.246   6.557   2.454
  200DIO    C1953170   4.115   6.595   2.503
  200DIO     F653171   4.052   6.696   2.438
  200DIO    C2053172   4.456   6.407   2.465
  200DIO     O353173   4.526   6.322   2.557
  200DIO    C2153174   4.569   6.391   2.674
  200DIO    C2253175   4.658   6.509   2.637
  200DIO    C2353176   4.577   6.597   2.542
  200DIO     O453177   4.533   6.522   2.429
  200DIO    C2453178   4.791   6.467   2.570
  200DIO    C2553179   4.882   6.376   2.654
  200DIO    C2653180   4.920   6.434   2.789
  200DIO     H153181   3.200   6.529   2.504
  200DIO     H253182   3.241   6.484   2.942
  200DIO     H353183   3.418   6.301   2.819
  200DIO     H453184   3.669   6.288   2.791
  200DIO     H553185   3.668   6.663   2.567
  200DIO     H653186   4.278   6.254   2.622
  200DIO     H753187   4.289   6.615   2.373
  200DIO     H853188   4.446   6.348   2.373
  200DIO     H953189   4.483   6.424   2.731
  200DIO    H1053190   4.622   6.319   2.737
  200DIO    H1153191   4.681   6.567   2.727
  200DIO    H1253192   4.639   6.680   2.504
  200DIO    H1353193   4.491   6.642   2.593
  200DIO    H1453194   4.771   6.417   2.475
  200DIO    H1553195   4.847   6.558   2.545
  200DIO    H1653196   4.834   6.278   2.668
  200DIO    H1753197   4.973   6.357   2.596
  200DIO    H1853198   4.964   6.534   2.778
  200DIO    H1953199   4.834   6.441   2.855
  200DIO    H2053200   4.994   6.370   2.838
  201DIO     F153201   6.156   4.778   4.371
  201DIO     C153202   6.234   4.758   4.263
  201DIO     C253203   6.378   4.769   4.276
  201DIO     C353204   6.467   4.749   4.159
  201DIO     C453205   6.401   4.716   4.030
  201DIO     C553206   6.257   4.706   4.020
  201DIO     F253207   6.202   4.671   3.902
  201DIO     C653208   6.173   4.726   4.136
  201DIO     F353209   6.039   4.717   4.125
  201DIO     C753210   6.613   4.761   4.170
  201DIO     C853211   6.690   4.846   4.076
  201DIO     C953212   6.835   4.858   4.086
  201DIO    C1053213   6.908   4.778   4.183
  201DIO    C1153214   6.835   4.699   4.281
  201DIO    C1253215   6.691   4.690   4.273
  201DIO     F453216   6.626   4.612   4.362
  201DIO     O153217   7.040   4.811   4.203
  201DIO    C1353218   7.134   4.713   4.233
  201DIO     O253219   7.135   4.588   4.220
  201DIO    C1453220   7.263   4.770   4.273
  201DIO    C1553221   7.330   4.877   4.195
  201DIO     F553222   7.267   4.931   4.088
  201DIO    C1653223   7.460   4.929   4.229
  201DIO    C1753224   7.536   4.873   4.340
  201DIO    C1853225   7.467   4.780   4.429
  201DIO    C1953226   7.336   4.729   4.396
  201DIO     F653227   7.273   4.655   4.490
  201DIO    C2053228   7.677   4.919   4.370
  201DIO     O353229   7.747   4.970   4.256
  201DIO    C2153230   7.790   4.867   4.168
  201DIO    C2253231   7.879   4.767   4.241
  201DIO    C2353232   7.798   4.715   4.360
  201DIO     O453233   7.754   4.822   4.442
  201DIO    C2453234   8.012   4.828   4.290
  201DIO    C2553235   8.103   4.888   4.182
  201DIO    C2653236   8.141   4.789   4.073
  201DIO     H153237   6.421   4.792   4.373
  201DIO     H253238   6.462   4.691   3.944
  201DIO     H353239   6.639   4.905   4.002
  201DIO     H453240   6.890   4.926   4.023
  201DIO     H553241   6.889   4.644   4.357
  201DIO     H653242   7.499   5.013   4.172
  201DIO     H753243   7.510   4.753   4.525
  201DIO     H853244   7.667   5.004   4.438
  201DIO     H953245   7.704   4.817   4.124
  201DIO    H1053246   7.843   4.914   4.085
  201DIO    H1153247   7.902   4.683   4.174
  201DIO    H1253248   7.860   4.648   4.422
  201DIO    H1353249   7.712   4.656   4.326
  201DIO    H1453250   7.992   4.907   4.364
  201DIO    H1553251   8.068   4.750   4.343
  201DIO    H1653252   8.055   4.976   4.137
  201DIO    H1753253   8.194   4.924   4.230
  201DIO    H1853254   8.185   4.698   4.116
  201DIO    H1953255   8.055   4.760   4.012
  201DIO    H2053256   8.215   4.834   4.006
  202DIO     F153257   0.188   6.272   1.675
  202DIO     C153258   0.266   6.382   1.684
  202DIO     C253259   0.410   6.366   1.692
  202DIO     C353260   0.499   6.484   1.705
  202DIO     C453261   0.433   6.617   1.707
  202DIO     C553262   0.289   6.630   1.700
  202DIO     F253263   0.234   6.752   1.698
  202DIO     C653264   0.205   6.513   1.688
  202DIO     F353265   0.072   6.526   1.682
  202DIO     C753266   0.645   6.471   1.713
  202DIO     C853267   0.722   6.538   1.820
  202DIO     C953268   0.867   6.526   1.828
  202DIO    C1053269   0.940   6.454   1.725
  202DIO    C1153270   0.867   6.380   1.623
  202DIO    C1253271   0.723   6.391   1.617
  202DIO     F453272   0.658   6.326   1.518
  202DIO     O153273   1.072   6.425   1.752
  202DIO    C1353274   1.166   6.423   1.650
  202DIO     O253275   1.167   6.469   1.533
  202DIO    C1453276   1.296   6.369   1.694
  202DIO    C1553277   1.362   6.416   1.817
  202DIO     F553278   1.299   6.504   1.898
  202DIO    C1653279   1.493   6.369   1.859
  202DIO    C1753280   1.568   6.277   1.775
  202DIO    C1853281   1.500   6.216   1.662
  202DIO    C1953282   1.368   6.262   1.621
  202DIO     F653283   1.306   6.191   1.525
  202DIO    C2053284   1.709   6.235   1.811
  202DIO     O353285   1.779   6.332   1.891
  202DIO    C2153286   1.823   6.444   1.815
  202DIO    C2253287   1.911   6.401   1.699
  202DIO    C2353288   1.831   6.300   1.617
  202DIO     O453289   1.786   6.192   1.699
  202DIO    C2453290   2.044   6.337   1.745
  202DIO    C2553291   2.135   6.425   1.832
  202DIO    C2653292   2.173   6.557   1.766
  202DIO     H153293   0.453   6.267   1.688
  202DIO     H253294   0.494   6.707   1.706
  202DIO     H353295   0.671   6.594   1.897
  202DIO     H453296   0.922   6.568   1.911
  202DIO     H553297   0.922   6.322   1.550
  202DIO     H653298   1.531   6.401   1.955
  202DIO     H753299   1.543   6.131   1.610
  202DIO     H853300   1.699   6.147   1.875
  202DIO     H953301   1.736   6.500   1.779
  202DIO    H1053302   1.875   6.512   1.883
  202DIO    H1153303   1.934   6.488   1.636
  202DIO    H1253304   1.892   6.259   1.537
  202DIO    H1353305   1.745   6.349   1.570
  202DIO    H1453306   2.024   6.244   1.801
  202DIO    H1553307   2.101   6.307   1.656
  202DIO    H1653308   2.088   6.445   1.928
  202DIO    H1753309   2.227   6.369   1.854
  202DIO    H1853310   2.217   6.540   1.667
  202DIO    H1953311   2.087   6.623   1.754
  202DIO    H2053312   2.247   6.609   1.827
  203DIO     F153313   6.459   0.584   1.970
  203DIO     C153314   6.536   0.635   2.068
  203DIO     C253315   6.680   0.621   2.059
  203DIO     C353316   6.769   0.673   2.165
  203DIO     C453317   6.704   0.743   2.278
  203DIO     C553318   6.559   0.756   2.285
  203DIO     F253319   6.504   0.824   2.387
  203DIO     C653320   6.476   0.703   2.180
  203DIO     F353321   6.342   0.715   2.188
  203DIO     C753322   6.916   0.659   2.158
  203DIO     C853323   6.993   0.605   2.273
  203DIO     C953324   7.137   0.591   2.266
  203DIO    C1053325   7.210   0.640   2.150
  203DIO    C1153326   7.138   0.686   2.033
  203DIO    C1253327   6.993   0.697   2.039
  203DIO     F453328   6.929   0.745   1.931
  203DIO     O153329   7.342   0.602   2.141
  203DIO    C1353330   7.437   0.686   2.083
  203DIO     O253331   7.438   0.810   2.060
  203DIO    C1453332   7.566   0.620   2.062
  203DIO    C1553333   7.632   0.541   2.168
  203DIO     F553334   7.570   0.521   2.286
  203DIO    C1653335   7.763   0.481   2.151
  203DIO    C1753336   7.839   0.502   2.028
  203DIO    C1853337   7.770   0.564   1.916
  203DIO    C1953338   7.638   0.623   1.933
  203DIO     F653339   7.576   0.666   1.821
  203DIO    C2053340   7.979   0.449   2.013
  203DIO     O353341   8.049   0.434   2.137
  203DIO    C2153342   8.093   0.558   2.191
  203DIO    C2253343   8.182   0.633   2.092
  203DIO    C2353344   8.101   0.648   1.963
  203DIO     O453345   8.057   0.521   1.916
  203DIO    C2453346   8.315   0.559   2.063
  203DIO    C2553347   8.405   0.535   2.184
  203DIO    C2653348   8.444   0.661   2.259
  203DIO     H153349   6.723   0.570   1.973
  203DIO     H253350   6.764   0.792   2.353
  203DIO     H353351   6.941   0.571   2.361
  203DIO     H453352   7.193   0.545   2.347
  203DIO     H553353   7.192   0.716   1.945
  203DIO     H653354   7.801   0.417   2.230
  203DIO     H753355   7.813   0.563   1.816
  203DIO     H853356   7.970   0.348   1.973
  203DIO     H953357   8.006   0.620   2.218
  203DIO    H1053358   8.146   0.538   2.284
  203DIO    H1153359   8.204   0.733   2.131
  203DIO    H1253360   8.162   0.693   1.884
  203DIO    H1353361   8.015   0.714   1.978
  203DIO    H1453362   8.295   0.463   2.015
  203DIO    H1553363   8.371   0.618   1.989
  203DIO    H1653364   8.358   0.464   2.253
  203DIO    H1753365   8.497   0.486   2.148
  203DIO    H1853366   8.488   0.735   2.191
  203DIO    H1953367   8.357   0.706   2.308
  203DIO    H2053368   8.517   0.638   2.336
  204DIO     F153369   3.516   3.197   0.663
  204DIO     C153370   3.594   3.249   0.760
  204DIO     C253371   3.738   3.235   0.751
  204DIO     C353372   3.827   3.289   0.856
  204DIO     C453373   3.761   3.360   0.969
  204DIO     C553374   3.617   3.373   0.975
  204DIO     F253375   3.561   3.442   1.077
  204DIO     C653376   3.533   3.319   0.871
  204DIO     F353377   3.399   3.331   0.879
  204DIO     C753378   3.973   3.274   0.850
  204DIO     C853379   4.050   3.222   0.965
  204DIO     C953380   4.195   3.208   0.959
  204DIO    C1053381   4.267   3.255   0.842
  204DIO    C1153382   4.195   3.299   0.725
  204DIO    C1253383   4.051   3.311   0.730
  204DIO     F453384   3.986   3.357   0.621
  204DIO     O153385   4.400   3.217   0.833
  204DIO    C1353386   4.494   3.301   0.775
  204DIO     O253387   4.495   3.424   0.749
  204DIO    C1453388   4.623   3.234   0.754
  204DIO    C1553389   4.690   3.157   0.862
  204DIO     F553390   4.627   3.138   0.980
  204DIO    C1653391   4.820   3.096   0.845
  204DIO    C1753392   4.896   3.116   0.722
  204DIO    C1853393   4.827   3.176   0.609
  204DIO    C1953394   4.696   3.236   0.625
  204DIO     F653395   4.633   3.277   0.513
  204DIO    C2053396   5.037   3.063   0.708
  204DIO     O353397   5.107   3.049   0.832
  204DIO    C2153398   5.150   3.174   0.884
  204DIO    C2253399   5.239   3.247   0.784
  204DIO    C2353400   5.158   3.261   0.655
  204DIO     O453401   5.114   3.133   0.610
  204DIO    C2453402   5.372   3.174   0.756
  204DIO    C2553403   5.463   3.150   0.877
  204DIO    C2653404   5.501   3.278   0.950
  204DIO     H153405   3.780   3.183   0.666
  204DIO     H253406   3.822   3.410   1.043
  204DIO     H353407   3.999   3.189   1.054
  204DIO     H453408   4.250   3.163   1.040
  204DIO     H553409   4.249   3.329   0.636
  204DIO     H653410   4.858   3.034   0.925
  204DIO     H753411   4.870   3.173   0.509
  204DIO     H853412   5.027   2.960   0.669
  204DIO     H953413   5.064   3.236   0.911
  204DIO    H1053414   5.203   3.155   0.978
  204DIO    H1153415   5.262   3.348   0.822
  204DIO    H1253416   5.219   3.305   0.576
  204DIO    H1353417   5.072   3.327   0.669
  204DIO    H1453418   5.352   3.076   0.710
  204DIO    H1553419   5.428   3.231   0.682
  204DIO    H1653420   5.415   3.081   0.947
  204DIO    H1753421   5.554   3.101   0.842
  204DIO    H1853422   5.545   3.351   0.882
  204DIO    H1953423   5.414   3.324   0.999
  204DIO    H2053424   5.575   3.256   1.028
  205DIO     F153425   5.196   6.771   6.890
  205DIO     C153426   5.274   6.778   7.000
  205DIO     C253427   5.418   6.769   6.986
  205DIO     C353428   5.507   6.774   7.105
  205DIO     C453429   5.441   6.792   7.236
  205DIO     C553430   5.297   6.802   7.248
  205DIO     F253431   5.241   6.822   7.369
  205DIO     C653432   5.213   6.795   7.130
  205DIO     F353433   5.079   6.803   7.142
  205DIO     C753434   5.653   6.764   7.093
  205DIO     C853435   5.730   6.668   7.176
  205DIO     C953436   5.875   6.658   7.164
  205DIO    C1053437   5.947   6.749   7.078
  205DIO    C1153438   5.875   6.839   6.989
  205DIO    C1253439   5.731   6.847   6.999
  205DIO     F453440   5.666   6.935   6.919
  205DIO     O153441   6.080   6.718   7.054
  205DIO    C1353442   6.174   6.819   7.035
  205DIO     O253443   6.175   6.942   7.063
  205DIO    C1453444   6.303   6.767   6.989
  205DIO    C1553445   6.369   6.652   7.054
  205DIO     F553446   6.307   6.586   7.154
  205DIO    C1653447   6.500   6.604   7.014
  205DIO    C1753448   6.576   6.673   6.910
  205DIO    C1853449   6.507   6.775   6.833
  205DIO    C1953450   6.376   6.822   6.872
  205DIO     F653451   6.313   6.907   6.787
  205DIO    C2053452   6.717   6.631   6.875
  205DIO     O353453   6.786   6.567   6.983
  205DIO    C2153454   6.830   6.659   7.082
  205DIO    C2253455   6.919   6.767   7.021
  205DIO    C2353456   6.838   6.832   6.910
  205DIO     O453457   6.794   6.735   6.815
  205DIO    C2453458   7.052   6.711   6.965
  205DIO    C2553459   7.142   6.640   7.066
  205DIO    C2653460   7.181   6.725   7.186
  205DIO     H153461   5.460   6.758   6.887
  205DIO     H253462   5.502   6.807   7.325
  205DIO     H353463   5.679   6.601   7.243
  205DIO     H453464   5.930   6.583   7.219
  205DIO     H553465   5.929   6.902   6.921
  205DIO     H653466   6.538   6.514   7.061
  205DIO     H753467   6.550   6.814   6.741
  205DIO     H853468   6.707   6.554   6.797
  205DIO     H953469   6.743   6.703   7.132
  205DIO    H1053470   6.883   6.602   7.159
  205DIO    H1153471   6.942   6.842   7.098
  205DIO    H1253472   6.899   6.906   6.856
  205DIO    H1353473   6.752   6.887   6.950
  205DIO    H1453474   7.032   6.642   6.882
  205DIO    H1553475   7.108   6.795   6.922
  205DIO    H1653476   7.095   6.547   7.100
  205DIO    H1753477   7.234   6.609   7.014
  205DIO    H1853478   7.225   6.820   7.154
  205DIO    H1953479   7.094   6.746   7.249
  205DIO    H2053480   7.255   6.672   7.247
  206DIO     F153481   4.978   8.040   3.642
  206DIO     C153482   5.055   8.104   3.732
  206DIO     C253483   5.199   8.088   3.725
  206DIO     C353484   5.288   8.155   3.823
  206DIO     C453485   5.223   8.239   3.925
  206DIO     C553486   5.078   8.253   3.930
  206DIO     F253487   5.023   8.334   4.022
  206DIO     C653488   4.995   8.186   3.834
  206DIO     F353489   4.861   8.199   3.840
  206DIO     C753490   5.434   8.139   3.818
  206DIO     C853491   5.512   8.102   3.939
  206DIO     C953492   5.656   8.088   3.935
  206DIO    C1053493   5.729   8.119   3.813
  206DIO    C1153494   5.656   8.149   3.691
  206DIO    C1253495   5.512   8.161   3.694
  206DIO     F453496   5.447   8.194   3.581
  206DIO     O153497   5.861   8.080   3.809
  206DIO    C1353498   5.956   8.156   3.740
  206DIO     O253499   5.956   8.276   3.700
  206DIO    C1453500   6.085   8.088   3.728
  206DIO    C1553501   6.151   8.025   3.844
  206DIO     F553502   6.088   8.020   3.964
  206DIO    C1653503   6.282   7.962   3.835
  206DIO    C1753504   6.358   7.966   3.711
  206DIO    C1853505   6.289   8.013   3.591
  206DIO    C1953506   6.157   8.074   3.600
  206DIO     F653507   6.095   8.101   3.483
  206DIO    C2053508   6.498   7.912   3.703
  206DIO     O353509   6.568   7.914   3.828
  206DIO    C2153510   6.612   8.045   3.865
  206DIO    C2253511   6.701   8.105   3.756
  206DIO    C2353512   6.620   8.102   3.626
  206DIO     O453513   6.576   7.970   3.597
  206DIO    C2453514   6.833   8.028   3.737
  206DIO    C2553515   6.924   8.020   3.860
  206DIO    C2653516   6.962   8.156   3.917
  206DIO     H153517   5.242   8.026   3.647
  206DIO     H253518   5.283   8.298   3.993
  206DIO     H353519   5.460   8.080   4.031
  206DIO     H453520   5.711   8.052   4.021
  206DIO     H553521   5.711   8.167   3.599
  206DIO     H653522   6.320   7.910   3.922
  206DIO     H753523   6.332   7.997   3.493
  206DIO     H853524   6.489   7.806   3.677
  206DIO     H953525   6.525   8.109   3.883
  206DIO    H1053526   6.664   8.037   3.960
  206DIO    H1153527   6.723   8.209   3.781
  206DIO    H1253528   6.681   8.136   3.542
  206DIO    H1353529   6.534   8.169   3.632
  206DIO    H1453530   6.813   7.926   3.703
  206DIO    H1553531   6.890   8.076   3.656
  206DIO    H1653532   6.877   7.959   3.939
  206DIO    H1753533   7.016   7.967   3.832
  206DIO    H1853534   7.006   8.220   3.841
  206DIO    H1953535   6.876   8.207   3.960
  206DIO    H2053536   7.036   8.143   3.997
  207DIO     F153537   5.694   0.690   5.140
  207DIO     C153538   5.772   0.712   5.032
  207DIO     C253539   5.916   0.718   5.048
  207DIO     C353540   6.005   0.743   4.933
  207DIO     C453541   5.939   0.760   4.801
  207DIO     C553542   5.795   0.754   4.788
  207DIO     F253543   5.739   0.766   4.665
  207DIO     C653544   5.711   0.730   4.903
  207DIO     F353545   5.577   0.725   4.889
  207DIO     C753546   6.151   0.750   4.947
  207DIO     C853547   6.228   0.864   4.892
  207DIO     C953548   6.373   0.871   4.905
  207DIO    C1053549   6.445   0.760   4.965
  207DIO    C1153550   6.373   0.651   5.027
  207DIO    C1253551   6.229   0.645   5.016
  207DIO     F453552   6.164   0.540   5.070
  207DIO     O153553   6.578   0.784   4.996
  207DIO    C1353554   6.672   0.682   4.988
  207DIO     O253555   6.673   0.571   4.929
  207DIO    C1453556   6.801   0.720   5.047
  207DIO    C1553557   6.867   0.848   5.013
  207DIO     F553558   6.805   0.938   4.935
  207DIO    C1653559   6.998   0.884   5.065
  207DIO    C1753560   7.074   0.791   5.147
  207DIO    C1853561   7.005   0.671   5.195
  207DIO    C1953562   6.874   0.636   5.145
  207DIO     F653563   6.811   0.532   5.204
  207DIO    C2053564   7.215   0.822   5.192
  207DIO     O353565   7.284   0.912   5.105
  207DIO    C2153566   7.328   0.849   4.985
  207DIO    C2253567   7.417   0.729   5.015
  207DIO    C2353568   7.336   0.636   5.106
  207DIO     O453569   7.292   0.705   5.222
  207DIO    C2453570   7.550   0.768   5.084
  207DIO    C2553571   7.640   0.863   5.005
  207DIO    C2653572   7.679   0.812   4.867
  207DIO     H153573   5.958   0.703   5.147
  207DIO     H253574   6.000   0.770   4.711
  207DIO     H353575   6.177   0.946   4.845
  207DIO     H453576   6.428   0.958   4.872
  207DIO     H553577   6.427   0.572   5.077
  207DIO     H653578   7.036   0.983   5.043
  207DIO     H753579   7.048   0.610   5.273
  207DIO     H853580   7.205   0.876   5.287
  207DIO     H953581   7.241   0.819   4.925
  207DIO    H1053582   7.381   0.924   4.925
  207DIO    H1153583   7.440   0.676   4.922
  207DIO    H1253584   7.397   0.551   5.139
  207DIO    H1353585   7.250   0.594   5.052
  207DIO    H1453586   7.530   0.813   5.182
  207DIO    H1553587   7.606   0.676   5.104
  207DIO    H1653588   7.593   0.961   4.996
  207DIO    H1753589   7.732   0.879   5.064
  207DIO    H1853590   7.723   0.712   4.873
  207DIO    H1953591   7.592   0.808   4.801
  207DIO    H2053592   7.753   0.879   4.822
  208DIO     F153593   5.181   2.437   3.624
  208DIO     C153594   5.259   2.537   3.580
  208DIO     C253595   5.403   2.527   3.594
  208DIO     C353596   5.492   2.637   3.549
  208DIO     C453597   5.426   2.755   3.488
  208DIO     C553598   5.282   2.763   3.475
  208DIO     F253599   5.227   2.870   3.415
  208DIO     C653600   5.198   2.654   3.520
  208DIO     F353601   5.064   2.663   3.509
  208DIO     C753602   5.638   2.629   3.563
  208DIO     C853603   5.715   2.740   3.624
  208DIO     C953604   5.860   2.732   3.638
  208DIO    C1053605   5.933   2.620   3.581
  208DIO    C1153606   5.860   2.507   3.527
  208DIO    C1253607   5.716   2.513   3.516
  208DIO     F453608   5.651   2.409   3.460
  208DIO     O153609   6.065   2.608   3.619
  208DIO    C1353610   6.159   2.557   3.530
  208DIO     O253611   6.160   2.542   3.405
  208DIO    C1453612   6.288   2.530   3.594
  208DIO    C1553613   6.355   2.631   3.681
  208DIO     F553614   6.292   2.747   3.710
  208DIO    C1653615   6.485   2.609   3.740
  208DIO    C1753616   6.561   2.488   3.710
  208DIO    C1853617   6.492   2.381   3.639
  208DIO    C1953618   6.361   2.402   3.582
  208DIO     F653619   6.298   2.294   3.531
  208DIO    C2053620   6.702   2.469   3.761
  208DIO     O353621   6.772   2.592   3.785
  208DIO    C2153622   6.815   2.655   3.665
  208DIO    C2253623   6.904   2.561   3.584
  208DIO    C2353624   6.823   2.434   3.560
  208DIO     O453625   6.779   2.378   3.683
  208DIO    C2453626   7.037   2.527   3.655
  208DIO    C2553627   7.128   2.646   3.688
  208DIO    C2653628   7.166   2.730   3.568
  208DIO     H153629   5.446   2.438   3.638
  208DIO     H253630   5.487   2.834   3.444
  208DIO     H353631   5.664   2.826   3.665
  208DIO     H453632   5.915   2.809   3.690
  208DIO     H553633   5.914   2.421   3.490
  208DIO     H653634   6.524   2.683   3.809
  208DIO     H753635   6.535   2.281   3.634
  208DIO     H853636   6.692   2.422   3.860
  208DIO     H953637   6.729   2.686   3.606
  208DIO    H1053638   6.868   2.747   3.693
  208DIO    H1153639   6.927   2.608   3.487
  208DIO    H1253640   6.885   2.359   3.509
  208DIO    H1353641   6.737   2.454   3.495
  208DIO    H1453642   7.017   2.472   3.748
  208DIO    H1553643   7.093   2.458   3.591
  208DIO    H1653644   7.080   2.710   3.764
  208DIO    H1753645   7.219   2.607   3.735
  208DIO    H1853646   7.210   2.668   3.489
  208DIO    H1953647   7.080   2.783   3.526
  208DIO    H2053648   7.240   2.805   3.597
  209DIO     F153649   4.977   3.495   9.414
  209DIO     C153650   5.054   3.458   9.311
  209DIO     C253651   5.198   3.471   9.322
  209DIO     C353652   5.287   3.434   9.209
  209DIO     C453653   5.222   3.381   9.088
  209DIO     C553654   5.077   3.369   9.079
  209DIO     F253655   5.022   3.316   8.968
  209DIO     C653656   4.994   3.407   9.190
  209DIO     F353657   4.860   3.396   9.181
  209DIO     C753658   5.433   3.447   9.218
  209DIO     C853659   5.511   3.516   9.112
  209DIO     C953660   5.655   3.529   9.120
  209DIO    C1053661   5.728   3.465   9.228
  209DIO    C1153662   5.655   3.403   9.338
  209DIO    C1253663   5.511   3.393   9.331
  209DIO     F453664   5.446   3.330   9.431
  209DIO     O153665   5.860   3.502   9.243
  209DIO    C1353666   5.955   3.410   9.288
  209DIO     O253667   5.955   3.284   9.295
  209DIO    C1453668   6.084   3.472   9.319
  209DIO    C1553669   6.150   3.565   9.224
  209DIO     F553670   6.087   3.602   9.111
  209DIO    C1653671   6.281   3.623   9.250
  209DIO    C1753672   6.357   3.585   9.369
  209DIO    C1853673   6.288   3.507   9.471
  209DIO    C1953674   6.156   3.451   9.446
  209DIO     F653675   6.094   3.393   9.551
  209DIO    C2053676   6.497   3.635   9.391
  209DIO     O353677   6.567   3.667   9.270
  209DIO    C2153678   6.611   3.551   9.199
  209DIO    C2253679   6.700   3.464   9.287
  209DIO    C2353680   6.619   3.431   9.413
  209DIO     O453681   6.575   3.550   9.477
  209DIO    C2453682   6.832   3.533   9.326
  209DIO    C2553683   6.923   3.574   9.210
  209DIO    C2653684   6.961   3.459   9.118
  209DIO     H153685   5.241   3.509   9.414
  209DIO     H253686   5.282   3.343   9.006
  209DIO     H353687   5.459   3.563   9.029
  209DIO     H453688   5.710   3.587   9.047
  209DIO     H553689   5.710   3.361   9.421
  209DIO     H653690   6.319   3.697   9.181
  209DIO     H753691   6.331   3.495   9.570
  209DIO     H853692   6.488   3.730   9.445
  209DIO     H953693   6.524   3.495   9.164
  209DIO    H1053694   6.663   3.585   9.110
  209DIO    H1153695   6.722   3.371   9.235
  209DIO    H1253696   6.680   3.375   9.485
  209DIO    H1353697   6.533   3.368   9.388
  209DIO    H1453698   6.812   3.622   9.387
  209DIO    H1553699   6.889   3.464   9.391
  209DIO    H1653700   6.876   3.654   9.151
  209DIO    H1753701   7.015   3.617   9.252
  209DIO    H1853702   7.005   3.376   9.174
  209DIO    H1953703   6.875   3.421   9.063
  209DIO    H2053704   7.035   3.493   9.045
  210DIO     F153705   7.321   3.639   9.242
  210DIO     C153706   7.398   3.579   9.334
  210DIO     C253707   7.543   3.580   9.317
  210DIO     C353708   7.631   3.514   9.415
  210DIO     C453709   7.566   3.449   9.531
  210DIO     C553710   7.422   3.450   9.546
  210DIO     F253711   7.366   3.394   9.655
  210DIO     C653712   7.338   3.515   9.448
  210DIO     F353713   7.204   3.514   9.462
  210DIO     C753714   7.778   3.512   9.399
  210DIO     C853715   7.855   3.386   9.409
  210DIO     C953716   8.000   3.385   9.394
  210DIO    C1053717   8.072   3.510   9.379
  210DIO    C1153718   8.000   3.634   9.361
  210DIO    C1253719   7.856   3.635   9.374
  210DIO     F453720   7.791   3.753   9.362
  210DIO     O153721   8.204   3.499   9.341
  210DIO    C1353722   8.299   3.591   9.386
  210DIO     O253723   8.300   3.672   9.482
  210DIO    C1453724   8.428   3.577   9.318
  210DIO    C1553725   8.494   3.446   9.302
  210DIO     F553726   8.432   3.333   9.342
  210DIO    C1653727   8.625   3.431   9.241
  210DIO    C1753728   8.701   3.548   9.199
  210DIO    C1853729   8.632   3.677   9.198
  210DIO    C1953730   8.500   3.691   9.257
  210DIO     F653731   8.438   3.810   9.240
  210DIO    C2053732   8.842   3.536   9.145
  210DIO     O353733   8.911   3.420   9.193
  210DIO    C2153734   8.955   3.434   9.328
  210DIO    C2253735   9.044   3.557   9.344
  210DIO    C2353736   8.963   3.677   9.294
  210DIO     O453737   8.919   3.655   9.160
  210DIO    C2453738   9.177   3.546   9.266
  210DIO    C2553739   9.267   3.429   9.304
  210DIO    C2653740   9.306   3.426   9.451
  210DIO     H153741   7.585   3.630   9.231
  210DIO     H253742   7.626   3.408   9.611
  210DIO     H353743   7.803   3.292   9.422
  210DIO     H453744   8.055   3.292   9.392
  210DIO     H553745   8.054   3.726   9.344
  210DIO     H653746   8.663   3.331   9.224
  210DIO     H753747   8.675   3.763   9.147
  210DIO     H853748   8.832   3.520   9.037
  210DIO     H953749   8.868   3.441   9.394
  210DIO    H1053750   9.008   3.343   9.356
  210DIO    H1153751   9.066   3.572   9.450
  210DIO    H1253752   9.024   3.768   9.294
  210DIO    H1353753   8.877   3.696   9.359
  210DIO    H1453754   9.157   3.540   9.158
  210DIO    H1553755   9.233   3.639   9.281
  210DIO    H1653756   9.220   3.334   9.276
  210DIO    H1753757   9.359   3.436   9.244
  210DIO    H1853758   9.350   3.521   9.482
  210DIO    H1953759   9.219   3.405   9.514
  210DIO    H2053760   9.379   3.347   9.468
  211DIO     F153761   1.715   8.203   6.906
  211DIO     C153762   1.792   8.254   7.004
  211DIO     C253763   1.936   8.239   6.995
  211DIO     C353764   2.025   8.292   7.101
  211DIO     C453765   1.960   8.362   7.214
  211DIO     C553766   1.815   8.375   7.221
  211DIO     F253767   1.760   8.442   7.323
  211DIO     C653768   1.732   8.322   7.116
  211DIO     F353769   1.598   8.333   7.124
  211DIO     C753770   2.172   8.277   7.094
  211DIO     C853771   2.249   8.224   7.209
  211DIO     C953772   2.393   8.210   7.202
  211DIO    C1053773   2.466   8.258   7.086
  211DIO    C1153774   2.393   8.304   6.969
  211DIO    C1253775   2.249   8.316   6.975
  211DIO     F453776   2.184   8.364   6.867
  211DIO     O153777   2.598   8.220   7.077
  211DIO    C1353778   2.693   8.305   7.020
  211DIO     O253779   2.694   8.428   6.996
  211DIO    C1453780   2.822   8.239   6.998
  211DIO    C1553781   2.888   8.160   7.104
  211DIO     F553782   2.825   8.140   7.222
  211DIO    C1653783   3.019   8.100   7.087
  211DIO    C1753784   3.095   8.121   6.964
  211DIO    C1853785   3.026   8.183   6.852
  211DIO    C1953786   2.894   8.242   6.869
  211DIO     F653787   2.832   8.285   6.757
  211DIO    C2053788   3.235   8.068   6.949
  211DIO     O353789   3.305   8.053   7.073
  211DIO    C2153790   3.349   8.177   7.127
  211DIO    C2253791   3.438   8.251   7.028
  211DIO    C2353792   3.357   8.266   6.899
  211DIO     O453793   3.313   8.139   6.852
  211DIO    C2453794   3.570   8.178   6.999
  211DIO    C2553795   3.661   8.153   7.120
  211DIO    C2653796   3.700   8.280   7.195
  211DIO     H153797   1.979   8.189   6.909
  211DIO     H253798   2.020   8.411   7.290
  211DIO     H353799   2.197   8.190   7.297
  211DIO     H453800   2.448   8.163   7.283
  211DIO     H553801   2.448   8.335   6.881
  211DIO     H653802   3.057   8.036   7.166
  211DIO     H753803   3.069   8.181   6.752
  211DIO     H853804   3.226   7.966   6.909
  211DIO     H953805   3.262   8.238   7.154
  211DIO    H1053806   3.402   8.156   7.221
  211DIO    H1153807   3.460   8.351   7.067
  211DIO    H1253808   3.418   8.312   6.820
  211DIO    H1353809   3.271   8.333   6.914
  211DIO    H1453810   3.551   8.081   6.951
  211DIO    H1553811   3.627   8.237   6.925
  211DIO    H1653812   3.614   8.083   7.189
  211DIO    H1753813   3.753   8.104   7.084
  211DIO    H1853814   3.743   8.354   7.127
  211DIO    H1953815   3.613   8.325   7.244
  211DIO    H2053816   3.773   8.256   7.272
  212DIO     F153817   4.900   3.480   2.212
  212DIO     C153818   4.977   3.370   2.203
  212DIO     C253819   5.121   3.385   2.196
  212DIO     C353820   5.210   3.268   2.183
  212DIO     C453821   5.145   3.135   2.181
  212DIO     C553822   5.000   3.122   2.189
  212DIO     F253823   4.945   2.999   2.191
  212DIO     C653824   4.917   3.239   2.200
  212DIO     F353825   4.783   3.226   2.206
  212DIO     C753826   5.357   3.281   2.175
  212DIO     C853827   5.434   3.213   2.068
  212DIO     C953828   5.578   3.226   2.060
  212DIO    C1053829   5.651   3.298   2.163
  212DIO    C1153830   5.578   3.372   2.264
  212DIO    C1253831   5.434   3.362   2.271
  212DIO     F453832   5.369   3.427   2.370
  212DIO     O153833   5.783   3.326   2.136
  212DIO    C1353834   5.878   3.329   2.238
  212DIO     O253835   5.879   3.283   2.355
  212DIO    C1453836   6.007   3.383   2.194
  212DIO    C1553837   6.073   3.336   2.070
  212DIO     F553838   6.010   3.247   1.990
  212DIO    C1653839   6.204   3.383   2.028
  212DIO    C1753840   6.280   3.475   2.112
  212DIO    C1853841   6.211   3.536   2.225
  212DIO    C1953842   6.079   3.490   2.266
  212DIO     F653843   6.017   3.562   2.362
  212DIO    C2053844   6.420   3.516   2.076
  212DIO     O353845   6.490   3.419   1.996
  212DIO    C2153846   6.534   3.307   2.072
  212DIO    C2253847   6.623   3.351   2.188
  212DIO    C2353848   6.542   3.452   2.270
  212DIO     O453849   6.498   3.560   2.188
  212DIO    C2453850   6.755   3.415   2.142
  212DIO    C2553851   6.846   3.326   2.056
  212DIO    C2653852   6.885   3.195   2.123
  212DIO     H153853   5.164   3.485   2.199
  212DIO     H253854   5.205   3.045   2.183
  212DIO     H353855   5.382   3.157   1.992
  212DIO     H453856   5.633   3.183   1.977
  212DIO     H553857   5.633   3.430   2.338
  212DIO     H653858   6.242   3.350   1.932
  212DIO     H753859   6.254   3.621   2.277
  212DIO     H853860   6.411   3.604   2.011
  212DIO     H953861   6.447   3.251   2.109
  212DIO    H1053862   6.587   3.239   2.005
  212DIO    H1153863   6.645   3.264   2.252
  212DIO    H1253864   6.603   3.494   2.351
  212DIO    H1353865   6.456   3.403   2.318
  212DIO    H1453866   6.736   3.507   2.086
  212DIO    H1553867   6.812   3.445   2.231
  212DIO    H1653868   6.799   3.306   1.960
  212DIO    H1753869   6.938   3.382   2.034
  212DIO    H1853870   6.928   3.212   2.221
  212DIO    H1953871   6.798   3.129   2.134
  212DIO    H2053872   6.958   3.142   2.061
  213DIO     F153873   2.053   8.326   6.432
  213DIO     C153874   2.131   8.230   6.379
  213DIO     C253875   2.275   8.247   6.378
  213DIO     C353876   2.363   8.144   6.319
  213DIO     C453877   2.298   8.024   6.263
  213DIO     C553878   2.154   8.009   6.265
  213DIO     F253879   2.098   7.896   6.217
  213DIO     C653880   2.070   8.111   6.323
  213DIO     F353881   1.936   8.097   6.323
  213DIO     C753882   2.510   8.160   6.317
  213DIO     C853883   2.587   8.141   6.192
  213DIO     C953884   2.732   8.156   6.189
  213DIO    C1053885   2.804   8.181   6.313
  213DIO    C1153886   2.732   8.207   6.436
  213DIO    C1253887   2.588   8.194   6.437
  213DIO     F453888   2.523   8.214   6.554
  213DIO     O153889   2.936   8.217   6.299
  213DIO    C1353890   3.031   8.179   6.394
  213DIO     O253891   3.032   8.089   6.482
  213DIO    C1453892   3.160   8.246   6.376
  213DIO    C1553893   3.226   8.252   6.243
  213DIO     F553894   3.164   8.204   6.134
  213DIO    C1653895   3.357   8.312   6.224
  213DIO    C1753896   3.433   8.363   6.338
  213DIO    C1853897   3.364   8.373   6.467
  213DIO    C1953898   3.233   8.314   6.485
  213DIO     F653899   3.170   8.340   6.602
  213DIO    C2053900   3.574   8.415   6.322
  213DIO     O353901   3.643   8.359   6.210
  213DIO    C2153902   3.687   8.226   6.234
  213DIO    C2253903   3.776   8.219   6.358
  213DIO    C2353904   3.695   8.277   6.473
  213DIO     O453905   3.651   8.409   6.442
  213DIO    C2453906   3.909   8.296   6.341
  213DIO    C2553907   3.999   8.250   6.227
  213DIO    C2653908   4.038   8.103   6.234
  213DIO     H153909   2.317   8.336   6.422
  213DIO     H253910   2.359   7.941   6.228
  213DIO     H353911   2.535   8.121   6.099
  213DIO     H453912   2.787   8.151   6.097
  213DIO     H553913   2.786   8.230   6.526
  213DIO     H653914   3.395   8.322   6.123
  213DIO     H753915   3.407   8.429   6.548
  213DIO     H853916   3.564   8.522   6.299
  213DIO     H953917   3.600   8.160   6.245
  213DIO    H1053918   3.740   8.191   6.145
  213DIO    H1153919   3.798   8.114   6.380
  213DIO    H1253920   3.756   8.283   6.564
  213DIO    H1353921   3.609   8.214   6.497
  213DIO    H1453922   3.889   8.403   6.328
  213DIO    H1553923   3.965   8.287   6.435
  213DIO    H1653924   3.952   8.270   6.130
  213DIO    H1753925   4.091   8.310   6.229
  213DIO    H1853926   4.082   8.078   6.331
  213DIO    H1953927   3.951   8.038   6.218
  213DIO    H2053928   4.111   8.079   6.157
  214DIO     F153929   2.623   4.220   1.175
  214DIO     C153930   2.700   4.190   1.281
  214DIO     C253931   2.844   4.186   1.265
  214DIO     C353932   2.933   4.151   1.378
  214DIO     C453933   2.868   4.124   1.508
  214DIO     C553934   2.723   4.129   1.522
  214DIO     F253935   2.668   4.108   1.643
  214DIO     C653936   2.640   4.162   1.409
  214DIO     F353937   2.506   4.166   1.423
  214DIO     C753938   3.080   4.145   1.363
  214DIO     C853939   3.157   4.028   1.410
  214DIO     C953940   3.301   4.022   1.396
  214DIO    C1053941   3.374   4.137   1.344
  214DIO    C1153942   3.302   4.251   1.291
  214DIO    C1253943   3.157   4.255   1.303
  214DIO     F453944   3.093   4.364   1.257
  214DIO     O153945   3.506   4.115   1.311
  214DIO    C1353946   3.601   4.216   1.328
  214DIO     O253947   3.602   4.323   1.395
  214DIO    C1453948   3.730   4.183   1.266
  214DIO    C1553949   3.796   4.053   1.290
  214DIO     F553950   3.734   3.957   1.362
  214DIO    C1653951   3.927   4.021   1.236
  214DIO    C1753952   4.003   4.120   1.161
  214DIO    C1853953   3.934   4.243   1.122
  214DIO    C1953954   3.802   4.274   1.175
  214DIO     F653955   3.740   4.382   1.123
  214DIO    C2053956   4.143   4.093   1.114
  214DIO     O353957   4.213   3.996   1.194
  214DIO    C2153958   4.257   4.050   1.318
  214DIO    C2253959   4.346   4.172   1.297
  214DIO    C2353960   4.265   4.271   1.214
  214DIO     O453961   4.221   4.211   1.092
  214DIO    C2453962   4.479   4.138   1.226
  214DIO    C2553963   4.569   4.037   1.297
  214DIO    C2653964   4.608   4.078   1.438
  214DIO     H153965   2.887   4.208   1.168
  214DIO     H253966   2.928   4.108   1.597
  214DIO     H353967   3.105   3.942   1.451
  214DIO     H453968   3.357   3.933   1.422
  214DIO     H553969   3.356   4.333   1.248
  214DIO     H653970   3.965   3.920   1.250
  214DIO     H753971   3.977   4.310   1.049
  214DIO     H853972   4.134   4.046   1.015
  214DIO     H953973   4.170   4.075   1.380
  214DIO    H1053974   4.310   3.970   1.372
  214DIO    H1153975   4.368   4.218   1.394
  214DIO    H1253976   4.326   4.358   1.188
  214DIO    H1353977   4.179   4.309   1.270
  214DIO    H1453978   4.459   4.101   1.125
  214DIO    H1553979   4.535   4.232   1.213
  214DIO    H1653980   4.522   3.939   1.298
  214DIO    H1753981   4.661   4.026   1.237
  214DIO    H1853982   4.652   4.178   1.440
  214DIO    H1953983   4.521   4.076   1.505
  214DIO    H2053984   4.681   4.008   1.478
  215DIO     F153985   3.159   3.261   9.706
  215DIO     C153986   3.236   3.182   9.782
  215DIO     C253987   3.381   3.186   9.766
  215DIO     C353988   3.469   3.099   9.846
  215DIO     C453989   3.404   3.009   9.944
  215DIO     C553990   3.260   3.006   9.958
  215DIO     F253991   3.204   2.926  10.052
  215DIO     C653992   3.176   3.092   9.878
  215DIO     F353993   3.042   3.088   9.892
  215DIO     C753994   3.616   3.101   9.830
  215DIO     C853995   3.693   2.976   9.810
  215DIO     C953996   3.838   2.979   9.795
  215DIO    C1053997   3.910   3.103   9.809
  215DIO    C1153998   3.838   3.229   9.821
  215DIO    C1253999   3.694   3.227   9.834
  215DIO     F454000   3.629   3.344   9.850
  215DIO     O154001   4.042   3.102   9.770
  215DIO    C1354002   4.137   3.180   9.836
  215DIO     O254003   4.138   3.237   9.948
  215DIO    C1454004   4.266   3.183   9.766
  215DIO    C1554005   4.332   3.059   9.720
  215DIO     F554006   4.270   2.940   9.733
  215DIO    C1654007   4.463   3.059   9.657
  215DIO    C1754008   4.539   3.183   9.643
  215DIO    C1854009   4.470   3.308   9.672
  215DIO    C1954010   4.338   3.308   9.734
  215DIO     F654011   4.276   3.427   9.745
  215DIO    C2054012   4.680   3.183   9.589
  215DIO     O354013   4.749   3.059   9.608
  215DIO    C2154014   4.793   3.042   9.743
  215DIO    C2254015   4.882   3.158   9.787
  215DIO    C2354016   4.801   3.286   9.766
  215DIO     O454017   4.757   3.296   9.631
  215DIO    C2454018   5.015   3.166   9.708
  215DIO    C2554019   5.105   3.042   9.718
  215DIO    C2654020   5.144   3.005   9.860
  215DIO     H154021   3.423   3.255   9.694
  215DIO     H254022   3.464   2.950  10.012
  215DIO     H354023   3.641   2.882   9.801
  215DIO     H454024   3.893   2.888   9.772
  215DIO     H554025   3.892   3.322   9.827
  215DIO     H654026   4.501   2.966   9.618
  215DIO     H754027   4.513   3.403   9.644
  215DIO     H854028   4.670   3.193   9.480
  215DIO     H954029   4.706   3.033   9.809
  215DIO    H1054030   4.846   2.946   9.748
  215DIO    H1154031   4.904   3.148   9.893
  215DIO    H1254032   4.862   3.374   9.787
  215DIO    H1354033   4.715   3.289   9.834
  215DIO    H1454034   4.995   3.185   9.602
  215DIO    H1554035   5.071   3.252   9.745
  215DIO    H1654036   5.058   2.957   9.669
  215DIO    H1754037   5.197   3.063   9.661
  215DIO    H1854038   5.188   3.090   9.913
  215DIO    H1954039   5.057   2.970   9.917
  215DIO    H2054040   5.217   2.924   9.859
  216DIO     F154041   8.013   1.083   5.766
  216DIO     C154042   8.091   1.017   5.854
  216DIO     C254043   8.235   1.018   5.837
  216DIO     C354044   8.324   0.945   5.931
  216DIO     C454045   8.258   0.873   6.042
  216DIO     C554046   8.114   0.873   6.057
  216DIO     F254047   8.058   0.809   6.162
  216DIO     C654048   8.030   0.944   5.964
  216DIO     F354049   7.896   0.943   5.978
  216DIO     C754050   8.470   0.945   5.915
  216DIO     C854051   8.547   0.819   5.915
  216DIO     C954052   8.692   0.819   5.900
  216DIO    C1054053   8.764   0.944   5.894
  216DIO    C1154054   8.692   1.070   5.885
  216DIO    C1254055   8.548   1.069   5.898
  216DIO     F454056   8.483   1.188   5.895
  216DIO     O154057   8.897   0.936   5.856
  216DIO    C1354058   8.991   1.024   5.907
  216DIO     O254059   8.992   1.099   6.009
  216DIO    C1454060   9.120   1.016   5.838
  216DIO    C1554061   9.187   0.886   5.813
  216DIO     F554062   9.124   0.770   5.845
  216DIO    C1654063   9.317   0.875   5.751
  216DIO    C1754064   9.393   0.995   5.717
  216DIO    C1854065   9.324   1.124   5.725
  216DIO    C1954066   9.193   1.134   5.786
  216DIO     F654067   9.130   1.253   5.777
  216DIO    C2054068   9.534   0.986   5.663
  216DIO     O354069   9.604   0.868   5.703
  216DIO    C2154070   9.647   0.872   5.838
  216DIO    C2254071   9.736   0.994   5.863
  216DIO    C2354072   9.655   1.117   5.821
  216DIO     O454073   9.611   1.105   5.686
  216DIO    C2454074   9.869   0.989   5.784
  216DIO    C2554075   9.960   0.869   5.813
  216DIO    C2654076   9.998   0.855   5.960
  216DIO     H154077   8.277   1.075   5.755
  216DIO     H254078   8.319   0.826   6.119
  216DIO     H354079   8.496   0.724   5.922
  216DIO     H454080   8.747   0.726   5.892
  216DIO     H554081   8.746   1.162   5.875
  216DIO     H654082   9.355   0.777   5.727
  216DIO     H754083   9.367   1.213   5.681
  216DIO     H854084   9.524   0.979   5.554
  216DIO     H954085   9.561   0.874   5.905
  216DIO    H1054086   9.700   0.779   5.859
  216DIO    H1154087   9.759   1.001   5.970
  216DIO    H1254088   9.716   1.207   5.828
  216DIO    H1354089   9.569   1.131   5.887
  216DIO    H1454090   9.849   0.990   5.676
  216DIO    H1554091   9.925   1.080   5.806
  216DIO    H1654092   9.912   0.776   5.779
  216DIO    H1754093  10.051   0.880   5.754
  216DIO    H1854094  10.042   0.948   5.998
  216DIO    H1954095   9.911   0.830   6.022
  216DIO    H2054096  10.072   0.775   5.972
  217DIO     F154097   7.983   2.135   9.235
  217DIO     C154098   8.061   2.099   9.130
  217DIO     C254099   8.205   2.112   9.141
  217DIO     C354100   8.293   2.076   9.029
  217DIO     C454101   8.228   2.024   8.906
  217DIO     C554102   8.084   2.012   8.898
  217DIO     F254103   8.028   1.961   8.786
  217DIO     C654104   8.000   2.049   9.009
  217DIO     F354105   7.866   2.039   9.000
  217DIO     C754106   8.440   2.089   9.037
  217DIO     C854107   8.517   2.160   8.932
  217DIO     C954108   8.662   2.172   8.941
  217DIO    C1054109   8.734   2.107   9.048
  217DIO    C1154110   8.662   2.044   9.157
  217DIO    C1254111   8.518   2.034   9.150
  217DIO     F454112   8.453   1.970   9.249
  217DIO     O154113   8.866   2.143   9.063
  217DIO    C1354114   8.961   2.051   9.107
  217DIO     O254115   8.962   1.925   9.112
  217DIO    C1454116   9.090   2.113   9.139
  217DIO    C1554117   9.156   2.207   9.045
  217DIO     F554118   9.094   2.245   8.932
  217DIO    C1654119   9.287   2.264   9.071
  217DIO    C1754120   9.363   2.225   9.190
  217DIO    C1854121   9.294   2.146   9.291
  217DIO    C1954122   9.163   2.090   9.266
  217DIO     F654123   9.100   2.031   9.370
  217DIO    C2054124   9.504   2.275   9.213
  217DIO     O354125   9.573   2.308   9.092
  217DIO    C2154126   9.617   2.194   9.020
  217DIO    C2254127   9.706   2.105   9.107
  217DIO    C2354128   9.625   2.071   9.232
  217DIO     O454129   9.581   2.189   9.298
  217DIO    C2454130   9.839   2.173   9.147
  217DIO    C2554131   9.929   2.216   9.031
  217DIO    C2654132   9.968   2.102   8.938
  217DIO     H154133   8.247   2.149   9.234
  217DIO     H254134   8.289   1.987   8.824
  217DIO     H354135   8.465   2.207   8.850
  217DIO     H454136   8.717   2.231   8.868
  217DIO     H554137   8.716   2.000   9.240
  217DIO     H654138   9.325   2.339   9.003
  217DIO     H754139   9.337   2.133   9.390
  217DIO     H854140   9.494   2.369   9.268
  217DIO     H954141   9.530   2.137   8.984
  217DIO    H1054142   9.670   2.228   8.931
  217DIO    H1154143   9.728   2.012   9.053
  217DIO    H1254144   9.686   2.014   9.303
  217DIO    H1354145   9.539   2.008   9.207
  217DIO    H1454146   9.819   2.262   9.209
  217DIO    H1554147   9.895   2.104   9.211
  217DIO    H1654148   9.882   2.296   8.973
  217DIO    H1754149  10.021   2.259   9.073
  217DIO    H1854150  10.012   2.019   8.993
  217DIO    H1954151   9.881   2.065   8.882
  217DIO    H2054152  10.041   2.137   8.865
  218DIO     F154153   3.564   2.535   0.614
  218DIO     C154154   3.642   2.533   0.504
  218DIO     C254155   3.786   2.542   0.518
  218DIO     C354156   3.875   2.542   0.400
  218DIO     C454157   3.809   2.531   0.267
  218DIO     C554158   3.665   2.522   0.256
  218DIO     F254159   3.610   2.508   0.134
  218DIO     C654160   3.581   2.523   0.373
  218DIO     F354161   3.448   2.516   0.361
  218DIO     C754162   4.021   2.553   0.412
  218DIO     C854163   4.098   2.652   0.334
  218DIO     C954164   4.243   2.661   0.346
  218DIO    C1054165   4.316   2.566   0.428
  218DIO    C1154166   4.243   2.473   0.512
  218DIO    C1254167   4.099   2.465   0.502
  218DIO     F454168   4.034   2.373   0.577
  218DIO     O154169   4.448   2.596   0.453
  218DIO    C1354170   4.542   2.495   0.467
  218DIO     O254171   4.543   2.373   0.433
  218DIO    C1454172   4.672   2.544   0.516
  218DIO    C1554173   4.738   2.662   0.456
  218DIO     F554174   4.675   2.733   0.360
  218DIO    C1654175   4.869   2.708   0.498
  218DIO    C1754176   4.944   2.635   0.599
  218DIO    C1854177   4.876   2.528   0.671
  218DIO    C1954178   4.744   2.483   0.630
  218DIO     F654179   4.682   2.395   0.710
  218DIO    C2054180   5.085   2.675   0.636
  218DIO     O354181   5.155   2.744   0.532
  218DIO    C2154182   5.199   2.657   0.428
  218DIO    C2254183   5.287   2.546   0.483
  218DIO    C2354184   5.207   2.475   0.592
  218DIO     O454185   5.162   2.567   0.690
  218DIO    C2454186   5.420   2.599   0.542
  218DIO    C2554187   5.511   2.675   0.445
  218DIO    C2654188   5.549   2.596   0.321
  218DIO     H154189   3.829   2.549   0.617
  218DIO     H254190   3.870   2.521   0.178
  218DIO     H354191   4.047   2.722   0.270
  218DIO     H454192   4.298   2.739   0.295
  218DIO     H554193   4.298   2.406   0.577
  218DIO     H654194   4.907   2.801   0.456
  218DIO     H754195   4.919   2.485   0.761
  218DIO     H854196   5.075   2.748   0.717
  218DIO     H954197   5.112   2.615   0.376
  218DIO    H1054198   5.251   2.717   0.353
  218DIO    H1154199   5.310   2.474   0.403
  218DIO    H1254200   5.268   2.399   0.642
  218DIO    H1354201   5.121   2.423   0.548
  218DIO    H1454202   5.400   2.664   0.628
  218DIO    H1554203   5.477   2.513   0.581
  218DIO    H1654204   5.464   2.769   0.415
  218DIO    H1754205   5.603   2.703   0.498
  218DIO    H1854206   5.593   2.499   0.348
  218DIO    H1954207   5.463   2.577   0.257
  218DIO    H2054208   5.623   2.651   0.262
  219DIO     F154209   3.863   5.213   1.056
  219DIO     C154210   3.940   5.183   1.162
  219DIO     C254211   4.084   5.179   1.146
  219DIO     C354212   4.173   5.144   1.259
  219DIO     C454213   4.108   5.116   1.389
  219DIO     C554214   3.963   5.121   1.403
  219DIO     F254215   3.908   5.099   1.523
  219DIO     C654216   3.880   5.155   1.290
  219DIO     F354217   3.746   5.158   1.304
  219DIO     C754218   4.320   5.138   1.244
  219DIO     C854219   4.397   5.020   1.290
  219DIO     C954220   4.541   5.014   1.276
  219DIO    C1054221   4.614   5.129   1.225
  219DIO    C1154222   4.541   5.243   1.172
  219DIO    C1254223   4.397   5.248   1.184
  219DIO     F454224   4.332   5.357   1.139
  219DIO     O154225   4.746   5.108   1.192
  219DIO    C1354226   4.841   5.209   1.209
  219DIO     O254227   4.842   5.315   1.277
  219DIO    C1454228   4.970   5.176   1.147
  219DIO    C1554229   5.036   5.046   1.170
  219DIO     F554230   4.973   4.950   1.241
  219DIO    C1654231   5.167   5.014   1.116
  219DIO    C1754232   5.243   5.114   1.042
  219DIO    C1854233   5.174   5.236   1.003
  219DIO    C1954234   5.042   5.267   1.056
  219DIO     F654235   4.980   5.376   1.005
  219DIO    C2054236   5.383   5.086   0.994
  219DIO     O354237   5.453   4.989   1.074
  219DIO    C2154238   5.497   5.042   1.199
  219DIO    C2254239   5.586   5.165   1.178
  219DIO    C2354240   5.505   5.264   1.095
  219DIO     O454241   5.461   5.205   0.973
  219DIO    C2454242   5.718   5.132   1.106
  219DIO    C2554243   5.809   5.030   1.177
  219DIO    C2654244   5.848   5.070   1.318
  219DIO     H154245   4.127   5.201   1.049
  219DIO     H254246   4.168   5.100   1.477
  219DIO     H354247   4.345   4.934   1.330
  219DIO     H454248   4.596   4.925   1.302
  219DIO     H554249   4.596   5.326   1.129
  219DIO     H654250   5.205   4.913   1.129
  219DIO     H754251   5.217   5.304   0.930
  219DIO     H854252   5.374   5.040   0.895
  219DIO     H954253   5.410   5.068   1.260
  219DIO    H1054254   5.550   4.963   1.252
  219DIO    H1154255   5.608   5.210   1.275
  219DIO    H1254256   5.566   5.351   1.069
  219DIO    H1354257   5.419   5.302   1.152
  219DIO    H1454258   5.699   5.094   1.005
  219DIO    H1554259   5.775   5.225   1.094
  219DIO    H1654260   5.762   4.931   1.178
  219DIO    H1754261   5.901   5.019   1.118
  219DIO    H1854262   5.891   5.170   1.321
  219DIO    H1954263   5.761   5.069   1.385
  219DIO    H2054264   5.921   5.000   1.358
  220DIO     F154265   5.098   7.827   0.941
  220DIO     C154266   5.175   7.741   1.009
  220DIO     C254267   5.320   7.747   0.994
  220DIO     C354268   5.408   7.652   1.065
  220DIO     C454269   5.343   7.554   1.154
  220DIO     C554270   5.199   7.550   1.168
  220DIO     F254271   5.143   7.461   1.254
  220DIO     C654272   5.115   7.643   1.097
  220DIO     F354273   4.981   7.637   1.110
  220DIO     C754274   5.555   7.656   1.049
  220DIO     C854275   5.632   7.534   1.018
  220DIO     C954276   5.777   7.537   1.003
  220DIO    C1054277   5.849   7.660   1.029
  220DIO    C1154278   5.777   7.784   1.053
  220DIO    C1254279   5.633   7.781   1.065
  220DIO     F454280   5.568   7.896   1.092
  220DIO     O154281   5.981   7.663   0.990
  220DIO    C1354282   6.076   7.735   1.063
  220DIO     O254283   6.077   7.781   1.180
  220DIO    C1454284   6.205   7.744   0.993
  220DIO    C1554285   6.271   7.625   0.936
  220DIO     F554286   6.209   7.505   0.937
  220DIO    C1654287   6.402   7.630   0.873
  220DIO    C1754288   6.478   7.755   0.871
  220DIO    C1854289   6.409   7.877   0.912
  220DIO    C1954290   6.277   7.871   0.973
  220DIO     F654291   6.215   7.989   0.995
  220DIO    C2054292   6.619   7.760   0.817
  220DIO     O354293   6.688   7.636   0.825
  220DIO    C2154294   6.732   7.605   0.957
  220DIO    C2254295   6.821   7.717   1.012
  220DIO    C2354296   6.740   7.846   1.003
  220DIO     O454297   6.696   7.869   0.869
  220DIO    C2454298   6.954   7.732   0.934
  220DIO    C2554299   7.044   7.608   0.932
  220DIO    C2654300   7.083   7.558   1.070
  220DIO     H154301   5.362   7.822   0.928
  220DIO     H254302   5.403   7.489   1.216
  220DIO     H354303   5.580   7.440   1.000
  220DIO     H454304   5.832   7.450   0.972
  220DIO     H554305   5.831   7.876   1.067
  220DIO     H654306   6.440   7.541   0.825
  220DIO     H754307   6.452   7.975   0.892
  220DIO     H854308   6.609   7.781   0.709
  220DIO     H954309   6.645   7.590   1.022
  220DIO    H1054310   6.785   7.510   0.954
  220DIO    H1154311   6.843   7.696   1.117
  220DIO    H1254312   6.801   7.932   1.033
  220DIO    H1354313   6.654   7.843   1.071
  220DIO    H1454314   6.934   7.761   0.830
  220DIO    H1554315   7.010   7.815   0.979
  220DIO    H1654316   6.997   7.527   0.875
  220DIO    H1754317   7.136   7.634   0.878
  220DIO    H1854318   7.127   7.638   1.131
  220DIO    H1954319   6.996   7.517   1.124
  220DIO    H2054320   7.156   7.477   1.061
  221DIO     F154321   0.613   9.297   4.404
  221DIO     C154322   0.691   9.208   4.339
  221DIO     C254323   0.835   9.225   4.341
  221DIO     C354324   0.924   9.132   4.268
  221DIO     C454325   0.858   9.020   4.196
  221DIO     C554326   0.714   9.005   4.196
  221DIO     F254327   0.659   8.900   4.133
  221DIO     C654328   0.630   9.099   4.267
  221DIO     F354329   0.497   9.085   4.265
  221DIO     C754330   1.070   9.148   4.268
  221DIO     C854331   1.147   9.146   4.141
  221DIO     C954332   1.292   9.162   4.141
  221DIO    C1054333   1.365   9.168   4.266
  221DIO    C1154334   1.292   9.178   4.392
  221DIO    C1254335   1.148   9.165   4.392
  221DIO     F454336   1.083   9.169   4.510
  221DIO     O154337   1.497   9.207   4.258
  221DIO    C1354338   1.591   9.155   4.347
  221DIO     O254339   1.592   9.054   4.422
  221DIO    C1454340   1.720   9.225   4.338
  221DIO    C1554341   1.787   9.249   4.208
  221DIO     F554342   1.724   9.217   4.093
  221DIO    C1654343   1.918   9.311   4.197
  221DIO    C1754344   1.993   9.345   4.317
  221DIO    C1854345   1.925   9.338   4.445
  221DIO    C1954346   1.793   9.277   4.455
  221DIO     F654347   1.730   9.287   4.575
  221DIO    C2054348   2.134   9.399   4.308
  221DIO     O354349   2.204   9.359   4.189
  221DIO    C2154350   2.247   9.224   4.194
  221DIO    C2254351   2.336   9.200   4.316
  221DIO    C2354352   2.256   9.242   4.439
  221DIO     O454353   2.211   9.377   4.426
  221DIO    C2454354   2.469   9.279   4.311
  221DIO    C2554355   2.560   9.249   4.191
  221DIO    C2654356   2.598   9.102   4.178
  221DIO     H154357   0.878   9.308   4.396
  221DIO     H254358   0.919   8.943   4.149
  221DIO     H354359   1.096   9.139   4.046
  221DIO     H454360   1.347   9.169   4.048
  221DIO     H554361   1.347   9.188   4.485
  221DIO     H654362   1.956   9.334   4.098
  221DIO     H754363   1.967   9.382   4.534
  221DIO     H854364   2.124   9.508   4.300
  221DIO     H954365   2.161   9.157   4.196
  221DIO    H1054366   2.300   9.202   4.101
  221DIO    H1154367   2.359   9.093   4.324
  221DIO    H1254368   2.317   9.236   4.529
  221DIO    H1354369   2.169   9.176   4.454
  221DIO    H1454370   2.449   9.387   4.312
  221DIO    H1554371   2.526   9.257   4.402
  221DIO    H1654372   2.512   9.282   4.098
  221DIO    H1754373   2.652   9.308   4.201
  221DIO    H1854374   2.642   9.064   4.271
  221DIO    H1954375   2.512   9.040   4.153
  221DIO    H2054376   2.672   9.090   4.098
  222DIO     F154377   6.164   2.226   0.638
  222DIO     C154378   6.242   2.321   0.584
  222DIO     C254379   6.386   2.313   0.599
  222DIO     C354380   6.475   2.417   0.543
  222DIO     C454381   6.409   2.529   0.470
  222DIO     C554382   6.265   2.535   0.457
  222DIO     F254383   6.210   2.635   0.386
  222DIO     C654384   6.181   2.432   0.513
  222DIO     F354385   6.048   2.439   0.501
  222DIO     C754386   6.621   2.411   0.558
  222DIO     C854387   6.698   2.527   0.608
  222DIO     C954388   6.843   2.521   0.622
  222DIO    C1054389   6.916   2.404   0.577
  222DIO    C1154390   6.843   2.285   0.535
  222DIO    C1254391   6.699   2.291   0.523
  222DIO     F454392   6.634   2.181   0.478
  222DIO     O154393   7.048   2.396   0.616
  222DIO    C1354394   7.142   2.336   0.533
  222DIO     O254395   7.143   2.308   0.410
  222DIO    C1454396   7.272   2.316   0.600
  222DIO    C1554397   7.338   2.425   0.675
  222DIO     F554398   7.275   2.543   0.692
  222DIO    C1654399   7.469   2.409   0.736
  222DIO    C1754400   7.544   2.286   0.719
  222DIO    C1854401   7.476   2.172   0.660
  222DIO    C1954402   7.344   2.187   0.600
  222DIO     F654403   7.282   2.074   0.560
  222DIO    C2054404   7.685   2.272   0.772
  222DIO     O354405   7.755   2.397   0.783
  222DIO    C2154406   7.799   2.447   0.657
  222DIO    C2254407   7.887   2.346   0.586
  222DIO    C2354408   7.807   2.216   0.575
  222DIO     O454409   7.762   2.173   0.703
  222DIO    C2454410   8.020   2.319   0.660
  222DIO    C2554411   8.111   2.440   0.681
  222DIO    C2654412   8.149   2.512   0.553
  222DIO     H154413   6.429   2.229   0.652
  222DIO     H254414   6.470   2.602   0.419
  222DIO     H354415   6.647   2.617   0.640
  222DIO     H454416   6.898   2.603   0.667
  222DIO     H554417   6.898   2.196   0.507
  222DIO     H654418   7.507   2.490   0.797
  222DIO     H754419   7.519   2.072   0.664
  222DIO     H854420   7.675   2.235   0.875
  222DIO     H954421   7.712   2.472   0.595
  222DIO    H1054422   7.851   2.541   0.675
  222DIO    H1154423   7.910   2.382   0.485
  222DIO    H1254424   7.868   2.136   0.532
  222DIO    H1354425   7.721   2.230   0.508
  222DIO    H1454426   8.000   2.274   0.758
  222DIO    H1554427   8.077   2.244   0.603
  222DIO    H1654428   8.064   2.511   0.750
  222DIO    H1754429   8.203   2.406   0.731
  222DIO    H1854430   8.193   2.442   0.481
  222DIO    H1954431   8.063   2.560   0.506
  222DIO    H2054432   8.223   2.590   0.574
  223DIO     F154433   2.464   5.955   8.730
  223DIO     C154434   2.542   6.064   8.737
  223DIO     C254435   2.686   6.049   8.745
  223DIO     C354436   2.775   6.167   8.755
  223DIO     C454437   2.709   6.300   8.755
  223DIO     C554438   2.565   6.313   8.748
  223DIO     F254439   2.510   6.435   8.744
  223DIO     C654440   2.481   6.195   8.738
  223DIO     F354441   2.348   6.208   8.732
  223DIO     C754442   2.921   6.154   8.764
  223DIO     C854443   2.998   6.224   8.870
  223DIO     C954444   3.143   6.211   8.878
  223DIO    C1054445   3.216   6.137   8.777
  223DIO    C1154446   3.143   6.061   8.676
  223DIO    C1254447   2.999   6.072   8.669
  223DIO     F454448   2.934   6.005   8.572
  223DIO     O154449   3.348   6.109   8.804
  223DIO    C1354450   3.442   6.105   8.702
  223DIO     O254451   3.443   6.149   8.584
  223DIO    C1454452   3.572   6.051   8.747
  223DIO    C1554453   3.638   6.101   8.870
  223DIO     F554454   3.575   6.191   8.949
  223DIO    C1654455   3.769   6.055   8.912
  223DIO    C1754456   3.844   5.961   8.830
  223DIO    C1854457   3.776   5.898   8.718
  223DIO    C1954458   3.644   5.943   8.676
  223DIO     F654459   3.582   5.871   8.581
  223DIO    C2054460   3.985   5.921   8.867
  223DIO     O354461   4.055   6.018   8.945
  223DIO    C2154462   4.099   6.129   8.867
  223DIO    C2254463   4.187   6.084   8.752
  223DIO    C2354464   4.107   5.982   8.672
  223DIO     O454465   4.062   5.875   8.755
  223DIO    C2454466   4.320   6.021   8.799
  223DIO    C2554467   4.411   6.111   8.883
  223DIO    C2654468   4.449   6.241   8.815
  223DIO     H154469   2.729   5.950   8.743
  223DIO     H254470   2.770   6.390   8.753
  223DIO     H354471   2.947   6.281   8.946
  223DIO     H454472   3.198   6.255   8.960
  223DIO     H554473   3.198   6.002   8.604
  223DIO     H654474   3.807   6.089   9.008
  223DIO     H754475   3.819   5.812   8.667
  223DIO     H854476   3.975   5.833   8.933
  223DIO     H954477   4.012   6.185   8.829
  223DIO    H1054478   4.151   6.198   8.934
  223DIO    H1154479   4.210   6.169   8.687
  223DIO    H1254480   4.168   5.938   8.592
  223DIO    H1354481   4.021   6.030   8.623
  223DIO    H1454482   4.300   5.929   8.857
  223DIO    H1554483   4.377   5.989   8.710
  223DIO    H1654484   4.364   6.133   8.980
  223DIO    H1754485   4.503   6.055   8.907
  223DIO    H1854486   4.493   6.222   8.717
  223DIO    H1954487   4.363   6.307   8.803
  223DIO    H2054488   4.523   6.295   8.876
  224DIO     F154489   1.318   7.450   3.208
  224DIO     C154490   1.396   7.401   3.306
  224DIO     C254491   1.540   7.400   3.289
  224DIO     C354492   1.629   7.344   3.394
  224DIO     C454493   1.563   7.293   3.517
  224DIO     C554494   1.419   7.295   3.531
  224DIO     F254495   1.364   7.251   3.646
  224DIO     C654496   1.335   7.349   3.427
  224DIO     F354497   1.202   7.350   3.441
  224DIO     C754498   1.775   7.341   3.378
  224DIO     C854499   1.852   7.217   3.402
  224DIO     C954500   1.997   7.214   3.387
  224DIO    C1054501   2.070   7.336   3.358
  224DIO    C1154502   1.997   7.458   3.327
  224DIO    C1254503   1.853   7.461   3.339
  224DIO     F454504   1.788   7.576   3.316
  224DIO     O154505   2.202   7.322   3.322
  224DIO    C1354506   2.296   7.418   3.357
  224DIO     O254507   2.297   7.509   3.443
  224DIO    C1454508   2.426   7.397   3.290
  224DIO    C1554509   2.492   7.265   3.289
  224DIO     F554510   2.429   7.157   3.341
  224DIO    C1654511   2.623   7.243   3.230
  224DIO    C1754512   2.698   7.355   3.175
  224DIO    C1854513   2.630   7.483   3.160
  224DIO    C1954514   2.498   7.504   3.218
  224DIO     F654515   2.436   7.620   3.188
  224DIO    C2054516   2.839   7.337   3.123
  224DIO     O354517   2.909   7.227   3.183
  224DIO    C2154518   2.953   7.256   3.316
  224DIO    C2254519   3.041   7.380   3.318
  224DIO    C2354520   2.961   7.493   3.255
  224DIO     O454521   2.916   7.458   3.125
  224DIO    C2454522   3.174   7.361   3.242
  224DIO    C2554523   3.265   7.248   3.292
  224DIO    C2654524   3.303   7.261   3.439
  224DIO     H154525   1.583   7.440   3.198
  224DIO     H254526   1.624   7.260   3.600
  224DIO     H354527   1.801   7.125   3.425
  224DIO     H454528   2.052   7.122   3.395
  224DIO     H554529   2.052   7.548   3.300
  224DIO     H654530   2.661   7.142   3.224
  224DIO     H754531   2.673   7.563   3.101
  224DIO     H854532   2.829   7.310   3.017
  224DIO     H954533   2.866   7.270   3.381
  224DIO    H1054534   3.005   7.168   3.354
  224DIO    H1154535   3.064   7.406   3.422
  224DIO    H1254536   3.022   7.584   3.246
  224DIO    H1354537   2.875   7.520   3.318
  224DIO    H1454538   3.154   7.343   3.135
  224DIO    H1554539   3.231   7.455   3.247
  224DIO    H1654540   3.218   7.151   3.275
  224DIO    H1754541   3.357   7.248   3.232
  224DIO    H1854542   3.347   7.359   3.460
  224DIO    H1954543   3.217   7.247   3.504
  224DIO    H2054544   3.377   7.184   3.465
  225DIO     F154545   3.598   3.855   4.016
  225DIO     C154546   3.676   3.952   3.963
  225DIO     C254547   3.820   3.943   3.978
  225DIO     C354548   3.909   4.048   3.923
  225DIO     C454549   3.843   4.160   3.851
  225DIO     C554550   3.699   4.166   3.838
  225DIO     F254551   3.643   4.267   3.768
  225DIO     C654552   3.615   4.062   3.893
  225DIO     F354553   3.481   4.070   3.881
  225DIO     C754554   4.055   4.042   3.938
  225DIO     C854555   4.132   4.157   3.989
  225DIO     C954556   4.277   4.151   4.003
  225DIO    C1054557   4.349   4.034   3.957
  225DIO    C1154558   4.277   3.916   3.913
  225DIO    C1254559   4.133   3.921   3.902
  225DIO     F454560   4.068   3.812   3.856
  225DIO     O154561   4.482   4.025   3.995
  225DIO    C1354562   4.576   3.966   3.912
  225DIO     O254563   4.577   3.940   3.789
  225DIO    C1454564   4.705   3.946   3.978
  225DIO    C1554565   4.772   4.054   4.055
  225DIO     F554566   4.709   4.172   4.073
  225DIO    C1654567   4.902   4.038   4.116
  225DIO    C1754568   4.978   3.915   4.097
  225DIO    C1854569   4.909   3.801   4.037
  225DIO    C1954570   4.778   3.817   3.977
  225DIO     F654571   4.715   3.704   3.937
  225DIO    C2054572   5.119   3.900   4.150
  225DIO     O354573   5.189   4.025   4.163
  225DIO    C2154574   5.232   4.076   4.037
  225DIO    C2254575   5.321   3.976   3.965
  225DIO    C2354576   5.240   3.847   3.952
  225DIO     O454577   5.196   3.802   4.080
  225DIO    C2454578   5.454   3.948   4.039
  225DIO    C2554579   5.545   4.069   4.061
  225DIO    C2654580   5.583   4.142   3.933
  225DIO     H154581   3.862   3.858   4.030
  225DIO     H254582   3.904   4.234   3.800
  225DIO     H354583   4.081   4.246   4.021
  225DIO     H454584   4.332   4.232   4.048
  225DIO     H554585   4.331   3.827   3.884
  225DIO     H654586   4.940   4.118   4.178
  225DIO     H754587   4.952   3.702   4.040
  225DIO     H854588   5.109   3.863   4.252
  225DIO     H954589   5.146   4.102   3.976
  225DIO    H1054590   5.285   4.170   4.056
  225DIO    H1154591   5.344   4.013   3.864
  225DIO    H1254592   5.301   3.767   3.909
  225DIO    H1354593   5.154   3.861   3.886
  225DIO    H1454594   5.434   3.902   4.137
  225DIO    H1554595   5.510   3.873   3.981
  225DIO    H1654596   5.497   4.140   4.131
  225DIO    H1754597   5.636   4.035   4.111
  225DIO    H1854598   5.627   4.073   3.860
  225DIO    H1954599   5.496   4.191   3.887
  225DIO    H2054600   5.657   4.220   3.955
  226DIO     F154601   3.102   1.726   5.282
  226DIO     C154602   3.179   1.762   5.386
  226DIO     C254603   3.324   1.749   5.375
  226DIO     C354604   3.412   1.785   5.488
  226DIO     C454605   3.347   1.837   5.610
  226DIO     C554606   3.203   1.849   5.619
  226DIO     F254607   3.147   1.900   5.730
  226DIO     C654608   3.119   1.812   5.507
  226DIO     F354609   2.985   1.823   5.516
  226DIO     C754610   3.559   1.772   5.479
  226DIO     C854611   3.636   1.702   5.584
  226DIO     C954612   3.781   1.689   5.576
  226DIO    C1054613   3.853   1.754   5.468
  226DIO    C1154614   3.781   1.817   5.359
  226DIO    C1254615   3.637   1.828   5.366
  226DIO     F454616   3.572   1.891   5.267
  226DIO     O154617   3.985   1.718   5.453
  226DIO    C1354618   4.080   1.810   5.409
  226DIO     O254619   4.081   1.936   5.404
  226DIO    C1454620   4.209   1.748   5.378
  226DIO    C1554621   4.275   1.654   5.471
  226DIO     F554622   4.213   1.616   5.584
  226DIO    C1654623   4.406   1.597   5.445
  226DIO    C1754624   4.482   1.636   5.327
  226DIO    C1854625   4.413   1.715   5.225
  226DIO    C1954626   4.281   1.771   5.251
  226DIO     F654627   4.219   1.830   5.147
  226DIO    C2054628   4.623   1.587   5.304
  226DIO     O354629   4.692   1.553   5.424
  226DIO    C2154630   4.736   1.668   5.496
  226DIO    C2254631   4.825   1.756   5.409
  226DIO    C2354632   4.744   1.790   5.284
  226DIO     O454633   4.700   1.672   5.219
  226DIO    C2454634   4.958   1.688   5.369
  226DIO    C2554635   5.048   1.645   5.485
  226DIO    C2654636   5.087   1.759   5.579
  226DIO     H154637   3.366   1.712   5.282
  226DIO     H254638   3.407   1.874   5.692
  226DIO     H354639   3.584   1.654   5.666
  226DIO     H454640   3.836   1.630   5.648
  226DIO     H554641   3.835   1.861   5.277
  226DIO     H654642   4.444   1.522   5.513
  226DIO     H754643   4.456   1.729   5.126
  226DIO     H854644   4.613   1.492   5.249
  226DIO     H954645   4.649   1.724   5.532
  226DIO    H1054646   4.789   1.633   5.585
  226DIO    H1154647   4.847   1.849   5.463
  226DIO    H1254648   4.805   1.847   5.213
  226DIO    H1354649   4.658   1.854   5.309
  226DIO    H1454650   4.938   1.599   5.308
  226DIO    H1554651   5.014   1.757   5.306
  226DIO    H1654652   5.001   1.565   5.543
  226DIO    H1754653   5.140   1.602   5.443
  226DIO    H1854654   5.131   1.842   5.523
  226DIO    H1954655   5.000   1.796   5.634
  226DIO    H2054656   5.160   1.724   5.652
  227DIO     F154657   5.974   8.030   8.279
  227DIO     C154658   6.051   7.975   8.184
  227DIO     C254659   6.196   7.989   8.192
  227DIO     C354660   6.284   7.932   8.089
  227DIO     C454661   6.219   7.857   7.979
  227DIO     C554662   6.075   7.844   7.973
  227DIO     F254663   6.019   7.771   7.873
  227DIO     C654664   5.991   7.902   8.075
  227DIO     F354665   5.857   7.889   8.068
  227DIO     C754666   6.431   7.947   8.095
  227DIO     C854667   6.508   7.995   7.978
  227DIO     C954668   6.653   8.009   7.983
  227DIO    C1054669   6.725   7.966   8.102
  227DIO    C1154670   6.653   7.926   8.221
  227DIO    C1254671   6.509   7.914   8.216
  227DIO     F454672   6.444   7.871   8.326
  227DIO     O154673   6.857   8.005   8.109
  227DIO    C1354674   6.952   7.923   8.170
  227DIO     O254675   6.953   7.800   8.200
  227DIO    C1454676   7.081   7.990   8.189
  227DIO    C1554677   7.147   8.063   8.079
  227DIO     F554678   7.085   8.079   7.961
  227DIO    C1654679   7.278   8.125   8.094
  227DIO    C1754680   7.354   8.109   8.217
  227DIO    C1854681   7.285   8.052   8.332
  227DIO    C1954682   7.153   7.992   8.318
  227DIO     F654683   7.091   7.955   8.432
  227DIO    C2054684   7.495   8.163   8.230
  227DIO     O354685   7.564   8.172   8.105
  227DIO    C2154686   7.608   8.045   8.057
  227DIO    C2254687   7.697   7.976   8.160
  227DIO    C2354688   7.616   7.967   8.289
  227DIO     O454689   7.572   8.096   8.330
  227DIO    C2454690   7.830   8.050   8.185
  227DIO    C2554691   7.920   8.070   8.063
  227DIO    C2654692   7.959   7.940   7.994
  227DIO     H154693   6.238   8.044   8.276
  227DIO     H254694   6.279   7.804   7.906
  227DIO     H354695   6.456   8.025   7.888
  227DIO     H454696   6.708   8.052   7.901
  227DIO     H554697   6.707   7.899   8.310
  227DIO     H654698   7.316   8.185   8.012
  227DIO     H754699   7.328   8.058   8.432
  227DIO     H854700   7.485   8.266   8.265
  227DIO     H954701   7.521   7.983   8.033
  227DIO    H1054702   7.661   8.062   7.963
  227DIO    H1154703   7.719   7.874   8.125
  227DIO    H1254704   7.677   7.925   8.370
  227DIO    H1354705   7.530   7.900   8.277
  227DIO    H1454706   7.810   8.149   8.229
  227DIO    H1554707   7.886   7.995   8.261
  227DIO    H1654708   7.873   8.137   7.991
  227DIO    H1754709   8.012   8.120   8.096
  227DIO    H1854710   8.003   7.869   8.065
  227DIO    H1954711   7.872   7.892   7.947
  227DIO    H2054712   8.032   7.960   7.916
  228DIO     F154713   1.869   3.008   8.737
  228DIO     C154714   1.946   3.100   8.677
  228DIO     C254715   2.091   3.093   8.692
  228DIO     C354716   2.179   3.193   8.629
  228DIO     C454717   2.114   3.299   8.549
  228DIO     C554718   1.970   3.304   8.535
  228DIO     F254719   1.914   3.400   8.458
  228DIO     C654720   1.886   3.205   8.598
  228DIO     F354721   1.752   3.212   8.586
  228DIO     C754722   2.326   3.188   8.644
  228DIO     C854723   2.403   3.307   8.686
  228DIO     C954724   2.548   3.302   8.701
  228DIO    C1054725   2.620   3.182   8.664
  228DIO    C1154726   2.548   3.061   8.630
  228DIO    C1254727   2.404   3.065   8.618
  228DIO     F454728   2.339   2.953   8.581
  228DIO     O154729   2.752   3.176   8.703
  228DIO    C1354730   2.847   3.111   8.624
  228DIO     O254731   2.848   3.075   8.504
  228DIO    C1454732   2.976   3.096   8.692
  228DIO    C1554733   3.042   3.209   8.760
  228DIO     F554734   2.980   3.329   8.769
  228DIO    C1654735   3.173   3.198   8.822
  228DIO    C1754736   3.249   3.074   8.813
  228DIO    C1854737   3.180   2.956   8.762
  228DIO    C1954738   3.048   2.967   8.702
  228DIO     F654739   2.986   2.852   8.670
  228DIO    C2054740   3.390   3.064   8.867
  228DIO     O354741   3.459   3.189   8.870
  228DIO    C2154742   3.503   3.231   8.741
  228DIO    C2254743   3.592   3.125   8.677
  228DIO    C2354744   3.511   2.995   8.675
  228DIO     O454745   3.467   2.960   8.805
  228DIO    C2454746   3.725   3.103   8.753
  228DIO    C2554747   3.815   3.226   8.765
  228DIO    C2654748   3.854   3.288   8.632
  228DIO     H154749   2.133   3.012   8.751
  228DIO     H254750   2.174   3.369   8.492
  228DIO     H354751   2.351   3.399   8.712
  228DIO     H454752   2.603   3.387   8.739
  228DIO     H554753   2.602   2.970   8.608
  228DIO     H654754   3.211   3.283   8.878
  228DIO     H754755   3.223   2.857   8.774
  228DIO     H854756   3.380   3.034   8.972
  228DIO     H954757   3.416   3.252   8.677
  228DIO    H1054758   3.556   3.326   8.752
  228DIO    H1154759   3.614   3.154   8.574
  228DIO    H1254760   3.572   2.912   8.637
  228DIO    H1354761   3.425   3.003   8.607
  228DIO    H1454762   3.705   3.065   8.854
  228DIO    H1554763   3.781   3.024   8.701
  228DIO    H1654764   3.768   3.301   8.829
  228DIO    H1754765   3.907   3.195   8.817
  228DIO    H1854766   3.898   3.213   8.565
  228DIO    H1954767   3.767   3.333   8.582
  228DIO    H2054768   3.927   3.367   8.648
  229DIO     F154769   1.127   5.705   9.702
  229DIO     C154770   1.205   5.611   9.645
  229DIO     C254771   1.349   5.628   9.645
  229DIO     C354772   1.438   5.528   9.582
  229DIO     C454773   1.372   5.410   9.521
  229DIO     C554774   1.228   5.395   9.522
  229DIO     F254775   1.173   5.284   9.469
  229DIO     C654776   1.144   5.495   9.584
  229DIO     F354777   1.010   5.481   9.584
  229DIO     C754778   1.584   5.544   9.580
  229DIO     C854779   1.661   5.530   9.454
  229DIO     C954780   1.806   5.546   9.452
  229DIO    C1054781   1.879   5.564   9.577
  229DIO    C1154782   1.806   5.585   9.701
  229DIO    C1254783   1.662   5.573   9.702
  229DIO     F454784   1.597   5.588   9.819
  229DIO     O154785   2.011   5.602   9.565
  229DIO    C1354786   2.105   5.559   9.658
  229DIO     O254787   2.106   5.466   9.742
  229DIO    C1454788   2.234   5.627   9.642
  229DIO    C1554789   2.301   5.639   9.511
  229DIO     F554790   2.238   5.596   9.399
  229DIO    C1654791   2.431   5.700   9.494
  229DIO    C1754792   2.507   5.745   9.610
  229DIO    C1854793   2.438   5.750   9.739
  229DIO    C1954794   2.307   5.691   9.755
  229DIO     F654795   2.244   5.712   9.872
  229DIO    C2054796   2.648   5.798   9.596
  229DIO     O354797   2.718   5.747   9.482
  229DIO    C2154798   2.761   5.613   9.500
  229DIO    C2254799   2.850   5.600   9.623
  229DIO    C2354800   2.769   5.654   9.741
  229DIO     O454801   2.725   5.787   9.716
  229DIO    C2454802   2.983   5.678   9.610
  229DIO    C2554803   3.074   5.637   9.494
  229DIO    C2654804   3.112   5.490   9.495
  229DIO     H154805   1.392   5.715   9.693
  229DIO     H254806   1.433   5.329   9.482
  229DIO     H354807   1.610   5.514   9.361
  229DIO     H454808   1.861   5.544   9.359
  229DIO     H554809   1.860   5.605   9.792
  229DIO     H654810   2.470   5.714   9.394
  229DIO     H754811   2.481   5.803   9.823
  229DIO     H854812   2.638   5.906   9.578
  229DIO     H954813   2.675   5.546   9.508
  229DIO    H1054814   2.814   5.582   9.409
  229DIO    H1154815   2.873   5.495   9.641
  229DIO    H1254816   2.831   5.656   9.832
  229DIO    H1354817   2.683   5.590   9.762
  229DIO    H1454818   2.963   5.786   9.601
  229DIO    H1554819   3.039   5.666   9.704
  229DIO    H1654820   3.026   5.662   9.398
  229DIO    H1754821   3.165   5.697   9.499
  229DIO    H1854822   3.156   5.461   9.591
  229DIO    H1954823   3.026   5.426   9.476
  229DIO    H2054824   3.186   5.470   9.416
  230DIO     F154825   2.596   1.154   3.268
  230DIO     C154826   2.673   1.247   3.327
  230DIO     C254827   2.817   1.230   3.327
  230DIO     C354828   2.906   1.328   3.392
  230DIO     C454829   2.841   1.445   3.455
  230DIO     C554830   2.696   1.460   3.454
  230DIO     F254831   2.641   1.570   3.509
  230DIO     C654832   2.613   1.361   3.390
  230DIO     F354833   2.479   1.376   3.391
  230DIO     C754834   3.052   1.312   3.394
  230DIO     C854835   3.130   1.323   3.520
  230DIO     C954836   3.274   1.308   3.521
  230DIO    C1054837   3.347   1.292   3.396
  230DIO    C1154838   3.274   1.273   3.272
  230DIO    C1254839   3.130   1.286   3.271
  230DIO     F454840   3.065   1.273   3.153
  230DIO     O154841   3.479   1.254   3.407
  230DIO    C1354842   3.574   1.299   3.315
  230DIO     O254843   3.574   1.394   3.233
  230DIO    C1454844   3.703   1.231   3.330
  230DIO    C1554845   3.769   1.216   3.461
  230DIO     F554846   3.706   1.257   3.573
  230DIO    C1654847   3.900   1.155   3.476
  230DIO    C1754848   3.976   1.112   3.360
  230DIO    C1854849   3.907   1.109   3.231
  230DIO    C1954850   3.775   1.169   3.216
  230DIO     F654851   3.713   1.150   3.098
  230DIO    C2054852   4.116   1.058   3.373
  230DIO     O354853   4.186   1.107   3.488
  230DIO    C2154854   4.230   1.242   3.472
  230DIO    C2254855   4.319   1.257   3.349
  230DIO    C2354856   4.238   1.205   3.230
  230DIO     O454857   4.194   1.072   3.253
  230DIO    C2454858   4.451   1.179   3.361
  230DIO    C2554859   4.542   1.218   3.478
  230DIO    C2654860   4.580   1.365   3.480
  230DIO     H154861   2.860   1.143   3.277
  230DIO     H254862   2.901   1.526   3.496
  230DIO     H354863   3.078   1.338   3.613
  230DIO     H454864   3.329   1.308   3.614
  230DIO     H554865   3.329   1.255   3.180
  230DIO     H654866   3.938   1.139   3.577
  230DIO     H754867   3.950   1.058   3.146
  230DIO     H854868   4.107   0.950   3.389
  230DIO     H954869   4.143   1.309   3.465
  230DIO    H1054870   4.282   1.271   3.564
  230DIO    H1154871   4.341   1.363   3.333
  230DIO    H1254872   4.299   1.205   3.139
  230DIO    H1354873   4.152   1.270   3.210
  230DIO    H1454874   4.431   1.071   3.368
  230DIO    H1554875   4.508   1.193   3.268
  230DIO    H1654876   4.495   1.191   3.573
  230DIO    H1754877   4.634   1.158   3.472
  230DIO    H1854878   4.624   1.395   3.384
  230DIO    H1954879   4.494   1.429   3.500
  230DIO    H2054880   4.654   1.383   3.558
  231DIO     F154881   4.104   6.335   5.576
  231DIO     C154882   4.182   6.432   5.628
  231DIO     C254883   4.326   6.415   5.628
  231DIO     C354884   4.414   6.519   5.686
  231DIO     C454885   4.349   6.640   5.741
  231DIO     C554886   4.205   6.655   5.739
  231DIO     F254887   4.149   6.768   5.785
  231DIO     C654888   4.121   6.552   5.682
  231DIO     F354889   3.987   6.566   5.682
  231DIO     C754890   4.561   6.503   5.689
  231DIO     C854891   4.638   6.523   5.814
  231DIO     C954892   4.783   6.508   5.816
  231DIO    C1054893   4.855   6.483   5.693
  231DIO    C1154894   4.783   6.455   5.571
  231DIO    C1254895   4.639   6.467   5.569
  231DIO     F454896   4.574   6.446   5.452
  231DIO     O154897   4.987   6.446   5.707
  231DIO    C1354898   5.082   6.483   5.612
  231DIO     O254899   5.083   6.572   5.523
  231DIO    C1454900   5.211   6.417   5.631
  231DIO    C1554901   5.277   6.412   5.763
  231DIO     F554902   5.215   6.461   5.872
  231DIO    C1654903   5.408   6.352   5.783
  231DIO    C1754904   5.484   6.300   5.670
  231DIO    C1854905   5.415   6.288   5.542
  231DIO    C1954906   5.284   6.347   5.523
  231DIO     F654907   5.221   6.319   5.406
  231DIO    C2054908   5.625   6.248   5.687
  231DIO     O354909   5.694   6.305   5.798
  231DIO    C2154910   5.738   6.439   5.773
  231DIO    C2254911   5.827   6.444   5.649
  231DIO    C2354912   5.746   6.384   5.534
  231DIO     O454913   5.702   6.253   5.567
  231DIO    C2454914   5.960   6.367   5.666
  231DIO    C2554915   6.050   6.415   5.780
  231DIO    C2654916   6.089   6.562   5.771
  231DIO     H154917   4.368   6.325   5.586
  231DIO     H254918   4.410   6.723   5.775
  231DIO     H354919   4.586   6.545   5.906
  231DIO     H454920   4.838   6.515   5.909
  231DIO     H554921   4.837   6.430   5.480
  231DIO     H654922   5.446   6.344   5.884
  231DIO     H754923   5.458   6.231   5.461
  231DIO     H854924   5.615   6.141   5.711
  231DIO     H954925   5.651   6.504   5.761
  231DIO    H1054926   5.791   6.474   5.862
  231DIO    H1154927   5.849   6.549   5.625
  231DIO    H1254928   5.807   6.377   5.443
  231DIO    H1354929   5.660   6.447   5.509
  231DIO    H1454930   5.940   6.260   5.681
  231DIO    H1554931   6.016   6.374   5.572
  231DIO    H1654932   6.003   6.395   5.877
  231DIO    H1754933   6.142   6.354   5.778
  231DIO    H1854934   6.133   6.585   5.673
  231DIO    H1954935   6.002   6.627   5.786
  231DIO    H2054936   6.162   6.586   5.848
  232DIO     F154937   0.994   9.446   1.556
  232DIO     C154938   1.072   9.379   1.469
  232DIO     C254939   1.216   9.394   1.475
  232DIO     C354940   1.304   9.324   1.380
  232DIO     C454941   1.239   9.236   1.280
  232DIO     C554942   1.095   9.222   1.276
  232DIO     F254943   1.039   9.137   1.187
  232DIO     C654944   1.011   9.292   1.370
  232DIO     F354945   0.877   9.279   1.364
  232DIO     C754946   1.451   9.340   1.384
  232DIO     C854947   1.528   9.372   1.262
  232DIO     C954948   1.673   9.387   1.265
  232DIO    C1054949   1.745   9.360   1.388
  232DIO    C1154950   1.673   9.335   1.511
  232DIO    C1254951   1.529   9.323   1.508
  232DIO     F454952   1.464   9.294   1.623
  232DIO     O154953   1.877   9.399   1.391
  232DIO    C1354954   1.972   9.326   1.462
  232DIO     O254955   1.973   9.208   1.507
  232DIO    C1454956   2.101   9.395   1.472
  232DIO    C1554957   2.167   9.453   1.353
  232DIO     F554958   2.105   9.453   1.234
  232DIO    C1654959   2.298   9.516   1.360
  232DIO    C1754960   2.374   9.517   1.484
  232DIO    C1854961   2.305   9.475   1.606
  232DIO    C1954962   2.174   9.414   1.599
  232DIO     F654963   2.111   9.391   1.717
  232DIO    C2054964   2.515   9.571   1.490
  232DIO     O354965   2.584   9.564   1.365
  232DIO    C2154966   2.628   9.433   1.334
  232DIO    C2254967   2.717   9.377   1.444
  232DIO    C2354968   2.636   9.384   1.574
  232DIO     O454969   2.592   9.518   1.598
  232DIO    C2454970   2.850   9.454   1.460
  232DIO    C2554971   2.940   9.457   1.337
  232DIO    C2654972   2.979   9.320   1.285
  232DIO     H154973   1.258   9.459   1.551
  232DIO     H254974   1.300   9.174   1.215
  232DIO     H354975   1.476   9.391   1.168
  232DIO     H454976   1.728   9.419   1.178
  232DIO     H554977   1.727   9.320   1.604
  232DIO     H654978   2.336   9.565   1.271
  232DIO     H754979   2.348   9.494   1.704
  232DIO     H854980   2.505   9.678   1.512
  232DIO     H954981   2.541   9.368   1.318
  232DIO    H1054982   2.681   9.437   1.238
  232DIO    H1154983   2.739   9.272   1.423
  232DIO    H1254984   2.697   9.354   1.659
  232DIO    H1354985   2.550   9.317   1.570
  232DIO    H1454986   2.830   9.558   1.490
  232DIO    H1554987   2.906   9.409   1.543
  232DIO    H1654988   2.893   9.515   1.257
  232DIO    H1754989   3.032   9.512   1.363
  232DIO    H1854990   3.023   9.258   1.364
  232DIO    H1954991   2.892   9.267   1.244
  232DIO    H2054992   3.052   9.329   1.205
  233DIO     F154993   0.199   0.913   7.831
  233DIO     C154994   0.276   0.834   7.907
  233DIO     C254995   0.421   0.838   7.891
  233DIO     C354996   0.509   0.752   7.971
  233DIO     C454997   0.444   0.662   8.070
  233DIO     C554998   0.300   0.660   8.084
  233DIO     F254999   0.244   0.581   8.178
  233DIO     C655000   0.216   0.745   8.004
  233DIO     F355001   0.082   0.741   8.017
  233DIO     C755002   0.656   0.754   7.955
  233DIO     C855003   0.733   0.629   7.936
  233DIO     C955004   0.878   0.631   7.921
  233DIO    C1055005   0.950   0.756   7.935
  233DIO    C1155006   0.878   0.881   7.946
  233DIO    C1255007   0.734   0.879   7.958
  233DIO     F455008   0.669   0.996   7.974
  233DIO     O155009   1.082   0.754   7.896
  233DIO    C1355010   1.177   0.833   7.960
  233DIO     O255011   1.178   0.891   8.072
  233DIO    C1455012   1.306   0.835   7.891
  233DIO    C1555013   1.372   0.711   7.845
  233DIO     F555014   1.310   0.592   7.859
  233DIO    C1655015   1.503   0.711   7.783
  233DIO    C1755016   1.579   0.834   7.768
  233DIO    C1855017   1.510   0.960   7.796
  233DIO    C1955018   1.378   0.960   7.858
  233DIO     F655019   1.316   1.080   7.868
  233DIO    C2055020   1.720   0.834   7.713
  233DIO     O355021   1.789   0.711   7.734
  233DIO    C2155022   1.833   0.694   7.868
  233DIO    C2255023   1.922   0.810   7.912
  233DIO    C2355024   1.841   0.938   7.890
  233DIO     O455025   1.797   0.947   7.755
  233DIO    C2455026   2.055   0.818   7.833
  233DIO    C2555027   2.145   0.694   7.843
  233DIO    C2655028   2.184   0.658   7.986
  233DIO     H155029   0.463   0.907   7.818
  233DIO     H255030   0.504   0.604   8.138
  233DIO     H355031   0.681   0.534   7.928
  233DIO     H455032   0.933   0.541   7.899
  233DIO     H555033   0.932   0.975   7.950
  233DIO     H655034   1.541   0.617   7.744
  233DIO     H755035   1.553   1.055   7.767
  233DIO     H855036   1.710   0.844   7.604
  233DIO     H955037   1.746   0.685   7.934
  233DIO    H1055038   1.886   0.599   7.875
  233DIO    H1155039   1.944   0.801   8.018
  233DIO    H1255040   1.902   1.026   7.911
  233DIO    H1355041   1.755   0.942   7.958
  233DIO    H1455042   2.035   0.836   7.727
  233DIO    H1555043   2.111   0.905   7.869
  233DIO    H1655044   2.098   0.608   7.795
  233DIO    H1755045   2.237   0.715   7.786
  233DIO    H1855046   2.228   0.743   8.038
  233DIO    H1955047   2.097   0.623   8.043
  233DIO    H2055048   2.257   0.577   7.985
  234DIO     F155049   3.530   8.831   4.015
  234DIO     C155050   3.608   8.813   4.123
  234DIO     C255051   3.752   8.807   4.107
  234DIO     C355052   3.841   8.785   4.224
  234DIO     C455053   3.775   8.772   4.356
  234DIO     C555054   3.631   8.779   4.369
  234DIO     F255055   3.575   8.771   4.492
  234DIO     C655056   3.547   8.800   4.253
  234DIO     F355057   3.413   8.804   4.267
  234DIO     C755058   3.987   8.778   4.210
  234DIO     C855059   4.064   8.666   4.269
  234DIO     C955060   4.209   8.659   4.255
  234DIO    C1055061   4.281   8.767   4.192
  234DIO    C1155062   4.209   8.874   4.126
  234DIO    C1255063   4.065   8.880   4.137
  234DIO     F455064   4.000   8.984   4.080
  234DIO     O155065   4.414   8.742   4.161
  234DIO    C1355066   4.508   8.844   4.166
  234DIO     O255067   4.509   8.957   4.222
  234DIO    C1455068   4.637   8.805   4.109
  234DIO    C1555069   4.704   8.678   4.147
  234DIO     F555070   4.641   8.591   4.228
  234DIO    C1655071   4.834   8.640   4.097
  234DIO    C1755072   4.910   8.731   4.011
  234DIO    C1855073   4.841   8.849   3.959
  234DIO    C1955074   4.710   8.885   4.008
  234DIO     F655075   4.647   8.987   3.945
  234DIO    C2055076   5.051   8.698   3.967
  234DIO     O355077   5.121   8.611   4.057
  234DIO    C2155078   5.164   8.678   4.175
  234DIO    C2255079   5.253   8.797   4.141
  234DIO    C2355080   5.172   8.887   4.047
  234DIO     O455081   5.128   8.814   3.933
  234DIO    C2455082   5.386   8.756   4.073
  234DIO    C2555083   5.477   8.663   4.155
  234DIO    C2655084   5.515   8.719   4.291
  234DIO     H155085   3.794   8.819   4.008
  234DIO     H255086   3.836   8.766   4.446
  234DIO     H355087   4.013   8.585   4.318
  234DIO     H455088   4.264   8.573   4.291
  234DIO     H555089   4.263   8.952   4.074
  234DIO     H655090   4.872   8.542   4.121
  234DIO     H755091   4.884   8.907   3.879
  234DIO     H855092   5.041   8.641   3.874
  234DIO     H955093   5.078   8.710   4.234
  234DIO    H1055094   5.217   8.605   4.237
  234DIO    H1155095   5.276   8.853   4.232
  234DIO    H1255096   5.233   8.970   4.012
  234DIO    H1355097   5.086   8.930   4.099
  234DIO    H1455098   5.366   8.707   3.977
  234DIO    H1555099   5.442   8.847   4.050
  234DIO    H1655100   5.429   8.565   4.167
  234DIO    H1755101   5.568   8.646   4.097
  234DIO    H1855102   5.559   8.819   4.282
  234DIO    H1955103   5.428   8.725   4.358
  234DIO    H2055104   5.589   8.653   4.339
  235DIO     F155105   0.188   3.712   0.910
  235DIO     C155106   0.266   3.810   0.959
  235DIO     C255107   0.410   3.793   0.960
  235DIO     C355108   0.499   3.898   1.015
  235DIO     C455109   0.433   4.021   1.066
  235DIO     C555110   0.289   4.036   1.064
  235DIO     F255111   0.234   4.151   1.107
  235DIO     C655112   0.205   3.931   1.010
  235DIO     F355113   0.072   3.945   1.009
  235DIO     C755114   0.645   3.883   1.018
  235DIO     C855115   0.722   3.907   1.143
  235DIO     C955116   0.867   3.892   1.146
  235DIO    C1055117   0.940   3.863   1.023
  235DIO    C1155118   0.867   3.831   0.901
  235DIO    C1255119   0.723   3.843   0.899
  235DIO     F455120   0.658   3.819   0.784
  235DIO     O155121   1.072   3.826   1.038
  235DIO    C1355122   1.166   3.861   0.942
  235DIO     O255123   1.167   3.947   0.850
  235DIO    C1455124   1.296   3.795   0.963
  235DIO    C1555125   1.362   3.794   1.096
  235DIO     F555126   1.299   3.846   1.203
  235DIO    C1655127   1.493   3.735   1.117
  235DIO    C1755128   1.568   3.679   1.005
  235DIO    C1855129   1.500   3.664   0.878
  235DIO    C1955130   1.368   3.722   0.857
  235DIO     F655131   1.306   3.691   0.741
  235DIO    C2055132   1.709   3.628   1.024
  235DIO     O355133   1.779   3.689   1.133
  235DIO    C2155134   1.823   3.821   1.104
  235DIO    C2255135   1.911   3.823   0.980
  235DIO    C2355136   1.831   3.759   0.867
  235DIO     O455137   1.786   3.629   0.903
  235DIO    C2455138   2.044   3.746   1.000
  235DIO    C2555139   2.135   3.797   1.112
  235DIO    C2655140   2.173   3.944   1.099
  235DIO     H155141   0.453   3.702   0.920
  235DIO     H255142   0.494   4.105   1.098
  235DIO     H355143   0.671   3.931   1.234
  235DIO     H455144   0.922   3.901   1.238
  235DIO     H555145   0.922   3.804   0.812
  235DIO     H655146   1.531   3.729   1.218
  235DIO     H755147   1.543   3.604   0.798
  235DIO     H855148   1.699   3.522   1.051
  235DIO     H955149   1.736   3.886   1.090
  235DIO    H1055150   1.875   3.859   1.192
  235DIO    H1155151   1.934   3.926   0.953
  235DIO    H1255152   1.892   3.749   0.777
  235DIO    H1355153   1.745   3.822   0.840
  235DIO    H1455154   2.024   3.640   1.018
  235DIO    H1555155   2.101   3.751   0.906
  235DIO    H1655156   2.088   3.781   1.209
  235DIO    H1755157   2.227   3.737   1.112
  235DIO    H1855158   2.217   3.964   1.000
  235DIO    H1955159   2.087   4.009   1.112
  235DIO    H2055160   2.247   3.970   1.175
  236DIO     F155161   5.073   1.027   1.842
  236DIO     C155162   5.151   1.008   1.734
  236DIO     C255163   5.295   1.019   1.747
  236DIO     C355164   5.384   1.001   1.630
  236DIO     C455165   5.318   0.969   1.501
  236DIO     C555166   5.174   0.959   1.491
  236DIO     F255167   5.119   0.926   1.372
  236DIO     C655168   5.090   0.978   1.607
  236DIO     F355169   4.956   0.969   1.596
  236DIO     C755170   5.530   1.013   1.641
  236DIO     C855171   5.607   1.099   1.548
  236DIO     C955172   5.752   1.110   1.558
  236DIO    C1055173   5.825   1.029   1.654
  236DIO    C1155174   5.752   0.949   1.752
  236DIO    C1255175   5.608   0.940   1.743
  236DIO     F455176   5.543   0.862   1.831
  236DIO     O155177   5.957   1.062   1.675
  236DIO    C1355178   6.051   0.964   1.704
  236DIO     O255179   6.052   0.839   1.689
  236DIO    C1455180   6.180   1.021   1.744
  236DIO    C1555181   6.247   1.128   1.667
  236DIO     F555182   6.184   1.183   1.561
  236DIO    C1655183   6.377   1.180   1.702
  236DIO    C1755184   6.453   1.123   1.812
  236DIO    C1855185   6.384   1.029   1.900
  236DIO    C1955186   6.253   0.978   1.866
  236DIO     F655187   6.190   0.903   1.960
  236DIO    C2055188   6.594   1.169   1.843
  236DIO     O355189   6.664   1.221   1.729
  236DIO    C2155190   6.707   1.119   1.640
  236DIO    C2255191   6.796   1.018   1.712
  236DIO    C2355192   6.715   0.964   1.830
  236DIO     O455193   6.671   1.071   1.913
  236DIO    C2455194   6.929   1.079   1.762
  236DIO    C2555195   7.020   1.139   1.654
  236DIO    C2655196   7.058   1.041   1.544
  236DIO     H155197   5.338   1.041   1.844
  236DIO     H255198   5.379   0.945   1.414
  236DIO     H355199   5.556   1.159   1.474
  236DIO     H455200   5.807   1.179   1.496
  236DIO     H555201   5.806   0.894   1.826
  236DIO     H655202   6.416   1.265   1.646
  236DIO     H755203   6.427   1.001   1.996
  236DIO     H855204   6.584   1.253   1.912
  236DIO     H955205   6.621   1.069   1.595
  236DIO    H1055206   6.760   1.167   1.557
  236DIO    H1155207   6.819   0.934   1.644
  236DIO    H1255208   6.777   0.897   1.891
  236DIO    H1355209   6.629   0.906   1.795
  236DIO    H1455210   6.909   1.156   1.837
  236DIO    H1555211   6.985   1.000   1.814
  236DIO    H1655212   6.972   1.227   1.610
  236DIO    H1755213   7.111   1.175   1.703
  236DIO    H1855214   7.102   0.950   1.586
  236DIO    H1955215   6.972   1.014   1.483
  236DIO    H2055216   7.132   1.087   1.477
  237DIO     F155217   3.973   6.457   6.507
  237DIO     C155218   4.051   6.544   6.575
  237DIO     C255219   4.195   6.527   6.572
  237DIO     C355220   4.284   6.619   6.647
  237DIO     C455221   4.218   6.728   6.722
  237DIO     C555222   4.074   6.743   6.723
  237DIO     F255223   4.019   6.847   6.789
  237DIO     C655224   3.990   6.652   6.649
  237DIO     F355225   3.857   6.666   6.651
  237DIO     C755226   4.430   6.603   6.647
  237DIO     C855227   4.507   6.601   6.774
  237DIO     C955228   4.652   6.585   6.774
  237DIO    C1055229   4.725   6.582   6.648
  237DIO    C1155230   4.652   6.576   6.522
  237DIO    C1255231   4.508   6.588   6.523
  237DIO     F455232   4.443   6.588   6.404
  237DIO     O155233   4.857   6.543   6.655
  237DIO    C1355234   4.951   6.597   6.568
  237DIO     O255235   4.952   6.700   6.496
  237DIO    C1455236   5.080   6.528   6.575
  237DIO    C1555237   5.147   6.500   6.705
  237DIO     F555238   5.084   6.529   6.820
  237DIO    C1655239   5.278   6.437   6.714
  237DIO    C1755240   5.353   6.406   6.593
  237DIO    C1855241   5.285   6.417   6.465
  237DIO    C1955242   5.153   6.478   6.456
  237DIO     F655243   5.090   6.471   6.337
  237DIO    C2055244   5.494   6.352   6.601
  237DIO     O355245   5.564   6.389   6.720
  237DIO    C2155246   5.607   6.524   6.718
  237DIO    C2255247   5.696   6.552   6.598
  237DIO    C2355248   5.616   6.512   6.474
  237DIO     O455249   5.571   6.377   6.483
  237DIO    C2455250   5.829   6.473   6.601
  237DIO    C2555251   5.920   6.500   6.721
  237DIO    C2655252   5.958   6.646   6.738
  237DIO     H155253   4.238   6.446   6.515
  237DIO     H255254   4.279   6.804   6.771
  237DIO     H355255   4.456   6.606   6.869
  237DIO     H455256   4.707   6.576   6.866
  237DIO     H555257   4.707   6.568   6.429
  237DIO     H655258   5.316   6.412   6.812
  237DIO     H755259   5.327   6.375   6.375
  237DIO     H855260   5.484   6.243   6.606
  237DIO     H955261   5.521   6.591   6.718
  237DIO    H1055262   5.660   6.544   6.812
  237DIO    H1155263   5.719   6.659   6.592
  237DIO    H1255264   5.677   6.521   6.383
  237DIO    H1355265   5.529   6.579   6.461
  237DIO    H1455266   5.809   6.365   6.597
  237DIO    H1555267   5.886   6.496   6.510
  237DIO    H1655268   5.872   6.464   6.813
  237DIO    H1755269   6.012   6.441   6.709
  237DIO    H1855270   6.002   6.686   6.646
  237DIO    H1955271   5.872   6.707   6.765
  237DIO    H2055272   6.032   6.656   6.818
  238DIO     F155273   4.373   3.245   3.535
  238DIO     C155274   4.450   3.143   3.492
  238DIO     C255275   4.594   3.160   3.490
  238DIO     C355276   4.683   3.053   3.440
  238DIO     C455277   4.618   2.927   3.396
  238DIO     C555278   4.473   2.913   3.400
  238DIO     F255279   4.418   2.796   3.363
  238DIO     C655280   4.390   3.020   3.447
  238DIO     F355281   4.256   3.006   3.449
  238DIO     C755282   4.830   3.068   3.436
  238DIO     C855283   4.907   3.037   3.314
  238DIO     C955284   5.051   3.052   3.310
  238DIO    C1055285   5.124   3.088   3.430
  238DIO    C1155286   5.051   3.126   3.550
  238DIO    C1255287   4.907   3.114   3.553
  238DIO     F455288   4.842   3.145   3.667
  238DIO     O155289   5.256   3.123   3.414
  238DIO    C1355290   5.351   3.094   3.512
  238DIO     O255291   5.352   3.013   3.608
  238DIO    C1455292   5.480   3.159   3.487
  238DIO    C1555293   5.546   3.153   3.355
  238DIO     F555294   5.483   3.094   3.250
  238DIO    C1655295   5.677   3.211   3.330
  238DIO    C1755296   5.753   3.272   3.438
  238DIO    C1855297   5.684   3.294   3.565
  238DIO    C1955298   5.552   3.238   3.589
  238DIO     F655299   5.490   3.275   3.703
  238DIO    C2055300   5.893   3.322   3.417
  238DIO     O355301   5.963   3.256   3.311
  238DIO    C2155302   6.007   3.125   3.348
  238DIO    C2255303   6.096   3.130   3.471
  238DIO    C2355304   6.015   3.200   3.581
  238DIO     O455305   5.971   3.328   3.537
  238DIO    C2455306   6.228   3.205   3.448
  238DIO    C2555307   6.319   3.148   3.338
  238DIO    C2655308   6.358   3.003   3.360
  238DIO     H155309   4.637   3.254   3.524
  238DIO     H255310   4.678   2.841   3.369
  238DIO     H355311   4.855   3.008   3.223
  238DIO     H455312   5.106   3.038   3.218
  238DIO     H555313   5.106   3.158   3.638
  238DIO     H655314   5.715   3.210   3.228
  238DIO     H755315   5.727   3.358   3.641
  238DIO     H855316   5.884   3.426   3.384
  238DIO     H955317   5.920   3.061   3.365
  238DIO    H1055318   6.060   3.082   3.262
  238DIO    H1155319   6.118   3.028   3.504
  238DIO    H1255320   6.076   3.214   3.671
  238DIO    H1355321   5.929   3.139   3.611
  238DIO    H1455322   6.209   3.311   3.424
  238DIO    H1555323   6.285   3.206   3.542
  238DIO    H1655324   6.272   3.160   3.240
  238DIO    H1755325   6.411   3.209   3.335
  238DIO    H1855326   6.401   2.988   3.459
  238DIO    H1955327   6.271   2.937   3.350
  238DIO    H2055328   6.431   2.972   3.285
  239DIO     F155329   3.862   6.826   8.814
  239DIO     C155330   3.939   6.894   8.900
  239DIO     C255331   4.083   6.879   8.894
  239DIO     C355332   4.172   6.950   8.988
  239DIO     C455333   4.107   7.039   9.087
  239DIO     C555334   3.962   7.053   9.091
  239DIO     F255335   3.907   7.139   9.179
  239DIO     C655336   3.879   6.982   8.998
  239DIO     F355337   3.745   6.995   9.003
  239DIO     C755338   4.319   6.935   8.984
  239DIO     C855339   4.396   6.903   9.107
  239DIO     C955340   4.540   6.888   9.103
  239DIO    C1055341   4.613   6.914   8.980
  239DIO    C1155342   4.541   6.938   8.857
  239DIO    C1255343   4.396   6.950   8.860
  239DIO     F455344   4.332   6.977   8.745
  239DIO     O155345   4.745   6.875   8.978
  239DIO    C1355346   4.840   6.948   8.906
  239DIO     O255347   4.841   7.065   8.860
  239DIO    C1455348   4.969   6.879   8.897
  239DIO    C1555349   5.035   6.821   9.016
  239DIO     F555350   4.973   6.823   9.135
  239DIO    C1655351   5.166   6.758   9.010
  239DIO    C1755352   5.242   6.756   8.886
  239DIO    C1855353   5.173   6.797   8.764
  239DIO    C1955354   5.041   6.858   8.769
  239DIO     F655355   4.979   6.880   8.652
  239DIO    C2055356   5.382   6.702   8.880
  239DIO     O355357   5.452   6.710   9.005
  239DIO    C2155358   5.496   6.842   9.035
  239DIO    C2255359   5.585   6.897   8.924
  239DIO    C2355360   5.504   6.888   8.795
  239DIO     O455361   5.460   6.754   8.772
  239DIO    C2455362   5.718   6.819   8.909
  239DIO    C2555363   5.808   6.817   9.032
  239DIO    C2655364   5.847   6.955   9.083
  239DIO     H155365   4.126   6.813   8.819
  239DIO     H255366   4.167   7.102   9.152
  239DIO     H355367   4.344   6.886   9.200
  239DIO     H455368   4.596   6.857   9.191
  239DIO     H555369   4.595   6.952   8.764
  239DIO     H655370   5.204   6.710   9.099
  239DIO     H755371   5.216   6.777   8.666
  239DIO     H855372   5.373   6.594   8.860
  239DIO     H955373   5.409   6.907   9.051
  239DIO    H1055374   5.549   6.839   9.131
  239DIO    H1155375   5.607   7.002   8.944
  239DIO    H1255376   5.565   6.918   8.709
  239DIO    H1355377   5.418   6.956   8.797
  239DIO    H1455378   5.698   6.715   8.880
  239DIO    H1555379   5.774   6.864   8.826
  239DIO    H1655380   5.761   6.760   9.113
  239DIO    H1755381   5.900   6.763   9.007
  239DIO    H1855382   5.891   7.016   9.003
  239DIO    H1955383   5.760   7.009   9.123
  239DIO    H2055384   5.920   6.947   9.163
  240DIO     F155385   5.442   7.662   7.139
  240DIO     C155386   5.519   7.640   7.247
  240DIO     C255387   5.663   7.634   7.231
  240DIO     C355388   5.752   7.608   7.346
  240DIO     C455389   5.687   7.590   7.478
  240DIO     C555390   5.542   7.596   7.491
  240DIO     F255391   5.487   7.583   7.613
  240DIO     C655392   5.459   7.621   7.376
  240DIO     F355393   5.325   7.625   7.390
  240DIO     C755394   5.898   7.601   7.332
  240DIO     C855395   5.976   7.487   7.387
  240DIO     C955396   6.120   7.480   7.373
  240DIO    C1055397   6.193   7.591   7.314
  240DIO    C1155398   6.120   7.701   7.252
  240DIO    C1255399   5.976   7.706   7.263
  240DIO     F455400   5.911   7.811   7.210
  240DIO     O155401   6.325   7.567   7.282
  240DIO    C1355402   6.420   7.669   7.291
  240DIO     O255403   6.420   7.780   7.351
  240DIO    C1455404   6.549   7.632   7.233
  240DIO    C1555405   6.615   7.503   7.265
  240DIO     F555406   6.552   7.413   7.343
  240DIO    C1655407   6.746   7.468   7.214
  240DIO    C1755408   6.822   7.562   7.132
  240DIO    C1855409   6.753   7.681   7.084
  240DIO    C1955410   6.621   7.716   7.135
  240DIO     F655411   6.559   7.820   7.076
  240DIO    C2055412   6.962   7.530   7.087
  240DIO     O355413   7.032   7.440   7.173
  240DIO    C2155414   7.076   7.502   7.294
  240DIO    C2255415   7.165   7.623   7.264
  240DIO    C2355416   7.084   7.716   7.174
  240DIO     O455417   7.040   7.647   7.057
  240DIO    C2455418   7.297   7.584   7.195
  240DIO    C2555419   7.388   7.488   7.273
  240DIO    C2655420   7.426   7.539   7.411
  240DIO     H155421   5.706   7.649   7.132
  240DIO     H255422   5.747   7.580   7.567
  240DIO     H355423   5.924   7.404   7.433
  240DIO     H455424   6.175   7.393   7.406
  240DIO     H555425   6.175   7.780   7.203
  240DIO     H655426   6.784   7.368   7.235
  240DIO     H755427   6.796   7.743   7.006
  240DIO     H855428   6.953   7.477   6.991
  240DIO     H955429   6.989   7.532   7.354
  240DIO    H1055430   7.128   7.427   7.353
  240DIO    H1155431   7.187   7.675   7.357
  240DIO    H1255432   7.145   7.801   7.141
  240DIO    H1355433   6.998   7.757   7.227
  240DIO    H1455434   7.277   7.539   7.097
  240DIO    H1555435   7.354   7.676   7.175
  240DIO    H1655436   7.341   7.390   7.282
  240DIO    H1755437   7.480   7.473   7.215
  240DIO    H1855438   7.470   7.639   7.406
  240DIO    H1955439   7.340   7.542   7.478
  240DIO    H2055440   7.500   7.472   7.456
  241DIO     F155441   5.643   0.994   2.446
  241DIO     C155442   5.721   0.973   2.554
  241DIO     C255443   5.865   0.967   2.538
  241DIO     C355444   5.954   0.943   2.654
  241DIO     C455445   5.888   0.927   2.786
  241DIO     C555446   5.744   0.933   2.799
  241DIO     F255447   5.688   0.923   2.921
  241DIO     C655448   5.660   0.957   2.684
  241DIO     F355449   5.526   0.961   2.697
  241DIO     C755450   6.100   0.936   2.639
  241DIO     C855451   6.177   0.823   2.696
  241DIO     C955452   6.322   0.816   2.682
  241DIO    C1055453   6.394   0.926   2.621
  241DIO    C1155454   6.322   1.034   2.558
  241DIO    C1255455   6.178   1.040   2.569
  241DIO     F455456   6.113   1.145   2.514
  241DIO     O155457   6.527   0.902   2.590
  241DIO    C1355458   6.621   1.004   2.598
  241DIO     O255459   6.622   1.115   2.656
  241DIO    C1455460   6.750   0.965   2.540
  241DIO    C1555461   6.816   0.837   2.574
  241DIO     F555462   6.754   0.748   2.654
  241DIO    C1655463   6.947   0.801   2.523
  241DIO    C1755464   7.023   0.894   2.440
  241DIO    C1855465   6.954   1.012   2.391
  241DIO    C1955466   6.823   1.048   2.441
  241DIO     F655467   6.760   1.151   2.380
  241DIO    C2055468   7.164   0.862   2.395
  241DIO     O355469   7.233   0.773   2.483
  241DIO    C2155470   7.277   0.837   2.603
  241DIO    C2255471   7.366   0.956   2.571
  241DIO    C2355472   7.285   1.048   2.479
  241DIO     O455473   7.241   0.978   2.364
  241DIO    C2455474   7.499   0.917   2.503
  241DIO    C2555475   7.589   0.823   2.582
  241DIO    C2655476   7.628   0.875   2.720
  241DIO     H155477   5.907   0.981   2.439
  241DIO     H255478   5.949   0.919   2.875
  241DIO     H355479   6.126   0.741   2.744
  241DIO     H455480   6.377   0.729   2.716
  241DIO     H555481   6.376   1.113   2.508
  241DIO     H655482   6.985   0.702   2.545
  241DIO     H755483   6.997   1.073   2.312
  241DIO     H855484   7.154   0.807   2.301
  241DIO     H955485   7.190   0.868   2.662
  241DIO    H1055486   7.330   0.762   2.663
  241DIO    H1155487   7.389   1.010   2.664
  241DIO    H1255488   7.346   1.133   2.446
  241DIO    H1355489   7.199   1.091   2.532
  241DIO    H1455490   7.479   0.871   2.405
  241DIO    H1555491   7.555   1.009   2.482
  241DIO    H1655492   7.542   0.724   2.592
  241DIO    H1755493   7.681   0.806   2.524
  241DIO    H1855494   7.672   0.975   2.713
  241DIO    H1955495   7.541   0.880   2.786
  241DIO    H2055496   7.702   0.809   2.766
  242DIO     F155497   2.415   2.022   6.800
  242DIO     C155498   2.492   1.916   6.829
  242DIO     C255499   2.637   1.928   6.817
  242DIO     C355500   2.725   1.813   6.846
  242DIO     C455501   2.660   1.687   6.890
  242DIO     C555502   2.516   1.678   6.901
  242DIO     F255503   2.460   1.564   6.946
  242DIO     C655504   2.432   1.792   6.872
  242DIO     F355505   2.298   1.782   6.882
  242DIO     C755506   2.872   1.823   6.833
  242DIO     C855507   2.949   1.722   6.757
  242DIO     C955508   3.094   1.731   6.744
  242DIO    C1055509   3.166   1.834   6.816
  242DIO    C1155510   3.094   1.939   6.886
  242DIO    C1255511   2.950   1.931   6.896
  242DIO     F455512   2.885   2.027   6.966
  242DIO     O155513   3.298   1.852   6.781
  242DIO    C1355514   3.393   1.890   6.876
  242DIO     O255515   3.394   1.887   7.002
  242DIO    C1455516   3.522   1.925   6.816
  242DIO    C1555517   3.588   1.838   6.716
  242DIO     F555518   3.526   1.727   6.671
  242DIO    C1655519   3.719   1.867   6.661
  242DIO    C1755520   3.795   1.983   6.708
  242DIO    C1855521   3.726   2.080   6.792
  242DIO    C1955522   3.594   2.050   6.847
  242DIO     F655523   3.532   2.150   6.912
  242DIO    C2055524   3.936   2.009   6.659
  242DIO     O355525   4.005   1.891   6.618
  242DIO    C2155526   4.049   1.812   6.728
  242DIO    C2255527   4.138   1.893   6.822
  242DIO    C2355528   4.057   2.016   6.864
  242DIO     O455529   4.013   2.089   6.750
  242DIO    C2455530   4.271   1.937   6.756
  242DIO    C2555531   4.361   1.824   6.706
  242DIO    C2655532   4.400   1.724   6.814
  242DIO     H155533   2.679   2.022   6.786
  242DIO     H255534   2.720   1.603   6.922
  242DIO     H355535   2.897   1.643   6.704
  242DIO     H455536   3.149   1.663   6.682
  242DIO     H555537   3.148   2.019   6.935
  242DIO     H655538   3.757   1.804   6.582
  242DIO     H755539   3.769   2.177   6.812
  242DIO     H855540   3.926   2.070   6.568
  242DIO     H955541   3.962   1.772   6.782
  242DIO    H1055542   4.102   1.725   6.688
  242DIO    H1155543   4.160   1.833   6.911
  242DIO    H1255544   4.118   2.083   6.925
  242DIO    H1355545   3.971   1.987   6.925
  242DIO    H1455546   4.251   2.004   6.672
  242DIO    H1555547   4.327   1.996   6.830
  242DIO    H1655548   4.314   1.772   6.623
  242DIO    H1755549   4.453   1.869   6.666
  242DIO    H1855550   4.444   1.774   6.901
  242DIO    H1955551   4.313   1.666   6.848
  242DIO    H2055552   4.473   1.653   6.775
  243DIO     F155553   7.794   8.911   4.398
  243DIO     C155554   7.872   8.936   4.505
  243DIO     C255555   8.016   8.924   4.493
  243DIO     C355556   8.105   8.949   4.609
  243DIO     C455557   8.039   8.989   4.736
  243DIO     C555558   7.895   9.000   4.746
  243DIO     F255559   7.840   9.040   4.862
  243DIO     C655560   7.811   8.974   4.631
  243DIO     F355561   7.677   8.984   4.641
  243DIO     C755562   8.251   8.937   4.599
  243DIO     C855563   8.328   8.857   4.697
  243DIO     C955564   8.473   8.845   4.687
  243DIO    C1055565   8.546   8.920   4.587
  243DIO    C1155566   8.473   8.994   4.484
  243DIO    C1255567   8.329   9.003   4.493
  243DIO     F455568   8.264   9.076   4.400
  243DIO     O155569   8.678   8.885   4.568
  243DIO    C1355570   8.772   8.982   4.533
  243DIO     O255571   8.773   9.107   4.541
  243DIO    C1455572   8.901   8.923   4.496
  243DIO    C1555573   8.968   8.820   4.580
  243DIO     F555574   8.905   8.771   4.689
  243DIO    C1655575   9.098   8.766   4.548
  243DIO    C1755576   9.174   8.817   4.434
  243DIO    C1855577   9.105   8.905   4.341
  243DIO    C1955578   8.974   8.958   4.372
  243DIO     F655579   8.911   9.027   4.274
  243DIO    C2055580   9.315   8.769   4.406
  243DIO     O355581   9.385   8.724   4.523
  243DIO    C2155582   9.428   8.831   4.606
  243DIO    C2255583   9.517   8.928   4.528
  243DIO    C2355584   9.436   8.974   4.407
  243DIO     O455585   9.392   8.863   4.330
  243DIO    C2455586   9.650   8.864   4.482
  243DIO    C2555587   9.741   8.810   4.593
  243DIO    C2655588   9.779   8.914   4.697
  243DIO     H155589   8.059   8.897   4.398
  243DIO     H255590   8.100   9.018   4.821
  243DIO     H355591   8.277   8.801   4.774
  243DIO     H455592   8.528   8.779   4.753
  243DIO     H555593   8.527   9.045   4.407
  243DIO     H655594   9.137   8.685   4.609
  243DIO     H755595   9.148   8.928   4.244
  243DIO     H855596   9.305   8.681   4.343
  243DIO     H955597   9.342   8.884   4.648
  243DIO    H1055598   9.481   8.788   4.691
  243DIO    H1155599   9.540   9.015   4.591
  243DIO    H1255600   9.498   9.037   4.342
  243DIO    H1355601   9.350   9.035   4.438
  243DIO    H1455602   9.630   8.782   4.412
  243DIO    H1555603   9.706   8.939   4.425
  243DIO    H1655604   9.693   8.724   4.642
  243DIO    H1755605   9.832   8.771   4.547
  243DIO    H1855606   9.823   9.003   4.650
  243DIO    H1955607   9.693   8.945   4.756
  243DIO    H2055608   9.853   8.872   4.766
  244DIO     F155609   5.909   7.899   2.419
  244DIO     C155610   5.987   7.900   2.309
  244DIO     C255611   6.131   7.909   2.323
  244DIO     C355612   6.220   7.912   2.205
  244DIO     C455613   6.154   7.905   2.072
  244DIO     C555614   6.010   7.897   2.060
  244DIO     F255615   5.955   7.886   1.938
  244DIO     C655616   5.926   7.894   2.178
  244DIO     F355617   5.792   7.887   2.165
  244DIO     C755618   6.366   7.922   2.218
  244DIO     C855619   6.443   8.024   2.142
  244DIO     C955620   6.588   8.033   2.154
  244DIO    C1055621   6.661   7.935   2.234
  244DIO    C1155622   6.588   7.839   2.315
  244DIO    C1255623   6.444   7.832   2.305
  244DIO     F455624   6.379   7.738   2.377
  244DIO     O155625   6.793   7.964   2.260
  244DIO    C1355626   6.887   7.863   2.270
  244DIO     O255627   6.888   7.742   2.233
  244DIO    C1455628   7.016   7.911   2.321
  244DIO    C1555629   7.083   8.030   2.265
  244DIO     F555630   7.020   8.104   2.171
  244DIO    C1655631   7.213   8.075   2.308
  244DIO    C1755632   7.289   7.998   2.407
  244DIO    C1855633   7.220   7.890   2.476
  244DIO    C1955634   7.089   7.846   2.433
  244DIO     F655635   7.026   7.755   2.511
  244DIO    C2055636   7.430   8.038   2.445
  244DIO     O355637   7.500   8.110   2.343
  244DIO    C2155638   7.543   8.026   2.236
  244DIO    C2255639   7.632   7.914   2.288
  244DIO    C2355640   7.551   7.839   2.395
  244DIO     O455641   7.507   7.929   2.496
  244DIO    C2455642   7.765   7.964   2.349
  244DIO    C2555643   7.856   8.044   2.254
  244DIO    C2655644   7.894   7.968   2.128
  244DIO     H155645   6.174   7.912   2.423
  244DIO     H255646   6.215   7.897   1.982
  244DIO     H355647   6.392   8.096   2.081
  244DIO     H455648   6.643   8.112   2.106
  244DIO     H555649   6.642   7.770   2.378
  244DIO     H655650   7.252   8.169   2.269
  244DIO     H755651   7.263   7.844   2.564
  244DIO     H855652   7.420   8.108   2.528
  244DIO     H955653   7.457   7.985   2.183
  244DIO    H1055654   7.596   8.089   2.164
  244DIO    H1155655   7.655   7.844   2.207
  244DIO    H1255656   7.613   7.762   2.443
  244DIO    H1355657   7.465   7.788   2.350
  244DIO    H1455658   7.745   8.027   2.437
  244DIO    H1555659   7.821   7.878   2.386
  244DIO    H1655660   7.808   8.139   2.227
  244DIO    H1755661   7.947   8.070   2.308
  244DIO    H1855662   7.938   7.871   2.152
  244DIO    H1955663   7.808   7.952   2.063
  244DIO    H2055664   7.968   8.025   2.071
  245DIO     F155665   3.062   1.447   0.688
  245DIO     C155666   3.139   1.557   0.693
  245DIO     C255667   3.284   1.542   0.701
  245DIO     C355668   3.372   1.660   0.710
  245DIO     C455669   3.307   1.793   0.707
  245DIO     C555670   3.163   1.805   0.699
  245DIO     F255671   3.107   1.928   0.693
  245DIO     C655672   3.079   1.688   0.692
  245DIO     F355673   2.945   1.700   0.685
  245DIO     C755674   3.519   1.647   0.719
  245DIO     C855675   3.596   1.718   0.823
  245DIO     C955676   3.741   1.706   0.832
  245DIO    C1055677   3.813   1.630   0.731
  245DIO    C1155678   3.741   1.553   0.632
  245DIO    C1255679   3.597   1.563   0.625
  245DIO     F455680   3.532   1.494   0.529
  245DIO     O155681   3.945   1.603   0.759
  245DIO    C1355682   4.040   1.596   0.657
  245DIO     O255683   4.041   1.638   0.539
  245DIO    C1455684   4.169   1.544   0.703
  245DIO    C1555685   4.235   1.596   0.825
  245DIO     F555686   4.173   1.687   0.902
  245DIO    C1655687   4.366   1.550   0.868
  245DIO    C1755688   4.442   1.455   0.788
  245DIO    C1855689   4.373   1.390   0.677
  245DIO    C1955690   4.241   1.434   0.635
  245DIO     F655691   4.179   1.360   0.541
  245DIO    C2055692   4.583   1.415   0.825
  245DIO     O355693   4.652   1.514   0.901
  245DIO    C2155694   4.696   1.624   0.822
  245DIO    C2255695   4.785   1.576   0.707
  245DIO    C2355696   4.704   1.473   0.629
  245DIO     O455697   4.660   1.368   0.714
  245DIO    C2455698   4.918   1.514   0.756
  245DIO    C2555699   5.008   1.605   0.839
  245DIO    C2655700   5.047   1.734   0.768
  245DIO     H155701   3.326   1.442   0.701
  245DIO     H255702   3.367   1.883   0.703
  245DIO     H355703   3.544   1.777   0.898
  245DIO     H455704   3.796   1.751   0.913
  245DIO     H555705   3.795   1.492   0.561
  245DIO     H655706   4.404   1.586   0.963
  245DIO     H755707   4.416   1.303   0.628
  245DIO     H855708   4.573   1.329   0.893
  245DIO     H955709   4.609   1.678   0.783
  245DIO    H1055710   4.749   1.694   0.887
  245DIO    H1155711   4.807   1.661   0.641
  245DIO    H1255712   4.765   1.428   0.550
  245DIO    H1355713   4.618   1.520   0.580
  245DIO    H1455714   4.898   1.424   0.815
  245DIO    H1555715   4.974   1.481   0.668
  245DIO    H1655716   4.961   1.629   0.935
  245DIO    H1755717   5.100   1.550   0.863
  245DIO    H1855718   5.091   1.714   0.670
  245DIO    H1955719   4.960   1.800   0.754
  245DIO    H2055720   5.120   1.789   0.827
  246DIO     F155721   4.364   8.085   6.761
  246DIO     C155722   4.442   8.071   6.652
  246DIO     C255723   4.586   8.082   6.665
  246DIO     C355724   4.675   8.070   6.548
  246DIO     C455725   4.609   8.045   6.417
  246DIO     C555726   4.465   8.035   6.406
  246DIO     F255727   4.410   8.008   6.286
  246DIO     C655728   4.381   8.047   6.523
  246DIO     F355729   4.248   8.039   6.512
  246DIO     C755730   4.821   8.081   6.559
  246DIO     C855731   4.898   8.171   6.471
  246DIO     C955732   5.043   8.182   6.482
  246DIO    C1055733   5.116   8.096   6.573
  246DIO    C1155734   5.043   8.012   6.666
  246DIO    C1255735   4.899   8.003   6.657
  246DIO     F455736   4.834   7.920   6.741
  246DIO     O155737   5.248   8.128   6.595
  246DIO    C1355738   5.342   8.029   6.619
  246DIO     O255739   5.343   7.905   6.598
  246DIO    C1455740   5.471   8.083   6.663
  246DIO    C1555741   5.538   8.194   6.591
  246DIO     F555742   5.475   8.255   6.488
  246DIO    C1655743   5.669   8.245   6.628
  246DIO    C1755744   5.744   8.182   6.736
  246DIO    C1855745   5.676   8.084   6.819
  246DIO    C1955746   5.544   8.034   6.782
  246DIO     F655747   5.481   7.955   6.872
  246DIO    C2055748   5.885   8.226   6.769
  246DIO     O355749   5.955   8.284   6.658
  246DIO    C2155750   5.998   8.186   6.564
  246DIO    C2255751   6.087   8.082   6.630
  246DIO    C2355752   6.007   8.022   6.745
  246DIO     O455753   5.962   8.124   6.834
  246DIO    C2455754   6.220   8.140   6.683
  246DIO    C2555755   6.311   8.206   6.579
  246DIO    C2655756   6.349   8.114   6.464
  246DIO     H155757   4.629   8.098   6.764
  246DIO     H255758   4.670   8.025   6.329
  246DIO     H355759   4.847   8.235   6.400
  246DIO     H455760   5.098   8.254   6.423
  246DIO     H555761   5.098   7.952   6.738
  246DIO     H655762   5.707   8.332   6.577
  246DIO     H755763   5.718   8.050   6.913
  246DIO     H855764   5.875   8.307   6.842
  246DIO     H955765   5.912   8.139   6.517
  246DIO    H1055766   6.051   8.239   6.484
  246DIO    H1155767   6.110   8.002   6.558
  246DIO    H1255768   6.068   7.952   6.803
  246DIO    H1355769   5.920   7.966   6.708
  246DIO    H1455770   6.200   8.214   6.762
  246DIO    H1555771   6.277   8.059   6.731
  246DIO    H1655772   6.263   8.297   6.539
  246DIO    H1755773   6.403   8.239   6.629
  246DIO    H1855774   6.393   8.021   6.501
  246DIO    H1955775   6.263   8.090   6.402
  246DIO    H2055776   6.423   8.164   6.400
  247DIO     F155777   2.844   9.394   9.839
  247DIO     C155778   2.922   9.291   9.877
  247DIO     C255779   3.066   9.302   9.864
  247DIO     C355780   3.155   9.190   9.903
  247DIO     C455781   3.089   9.068   9.957
  247DIO     C555782   2.945   9.060   9.969
  247DIO     F255783   2.890   8.950  10.023
  247DIO     C655784   2.861   9.171   9.930
  247DIO     F355785   2.727   9.162   9.941
  247DIO     C755786   3.301   9.198   9.889
  247DIO     C855787   3.378   9.092   9.821
  247DIO     C955788   3.523   9.100   9.808
  247DIO    C1055789   3.596   9.209   9.871
  247DIO    C1155790   3.523   9.319   9.932
  247DIO    C1255791   3.379   9.312   9.943
  247DIO     F455792   3.314   9.413  10.004
  247DIO     O155793   3.728   9.223   9.835
  247DIO    C1355794   3.822   9.269   9.926
  247DIO     O255795   3.823   9.276  10.052
  247DIO    C1455796   3.951   9.299   9.863
  247DIO    C1555797   4.018   9.204   9.771
  247DIO     F555798   3.955   9.090   9.736
  247DIO    C1655799   4.148   9.229   9.714
  247DIO    C1755800   4.224   9.348   9.751
  247DIO    C1855801   4.155   9.451   9.827
  247DIO    C1955802   4.024   9.426   9.883
  247DIO     F655803   3.961   9.532   9.941
  247DIO    C2055804   4.365   9.370   9.700
  247DIO     O355805   4.435   9.249   9.669
  247DIO    C2155806   4.478   9.179   9.785
  247DIO    C2255807   4.567   9.267   9.872
  247DIO    C2355808   4.486   9.393   9.904
  247DIO     O455809   4.442   9.457   9.784
  247DIO    C2455810   4.700   9.306   9.803
  247DIO    C2555811   4.791   9.189   9.763
  247DIO    C2655812   4.829   9.098   9.878
  247DIO     H155813   3.109   9.394   9.826
  247DIO     H255814   3.150   8.987   9.996
  247DIO     H355815   3.327   9.008   9.775
  247DIO     H455816   3.578   9.026   9.751
  247DIO     H555817   3.577   9.402   9.974
  247DIO     H655818   4.187   9.159   9.640
  247DIO     H755819   4.198   9.550   9.839
  247DIO     H855820   4.355   9.423   9.605
  247DIO     H955821   4.392   9.144   9.842
  247DIO    H1055822   4.531   9.089   9.753
  247DIO    H1155823   4.590   9.216   9.966
  247DIO    H1255824   4.548   9.465   9.959
  247DIO    H1355825   4.400   9.369   9.967
  247DIO    H1455826   4.680   9.366   9.713
  247DIO    H1555827   4.756   9.371   9.871
  247DIO    H1655828   4.743   9.130   9.684
  247DIO    H1755829   4.882   9.231   9.719
  247DIO    H1855830   4.873   9.155   9.961
  247DIO    H1955831   4.743   9.043   9.916
  247DIO    H2055832   4.903   9.025   9.845
  248DIO     F155833   2.508   9.145   5.368
  248DIO     C155834   2.585   9.148   5.478
  248DIO     C255835   2.729   9.139   5.463
  248DIO     C355836   2.818   9.139   5.582
  248DIO     C455837   2.753   9.151   5.714
  248DIO     C555838   2.608   9.160   5.726
  248DIO     F255839   2.553   9.175   5.848
  248DIO     C655840   2.525   9.159   5.608
  248DIO     F355841   2.391   9.166   5.621
  248DIO     C755842   2.965   9.129   5.569
  248DIO     C855843   3.042   9.030   5.648
  248DIO     C955844   3.186   9.021   5.637
  248DIO    C1055845   3.259   9.115   5.554
  248DIO    C1155846   3.186   9.208   5.469
  248DIO    C1255847   3.042   9.216   5.479
  248DIO     F455848   2.977   9.307   5.404
  248DIO     O155849   3.391   9.085   5.529
  248DIO    C1355850   3.486   9.187   5.515
  248DIO     O255851   3.487   9.308   5.548
  248DIO    C1455852   3.615   9.137   5.466
  248DIO    C1555853   3.681   9.019   5.527
  248DIO     F555854   3.618   8.949   5.623
  248DIO    C1655855   3.812   8.973   5.484
  248DIO    C1755856   3.888   9.046   5.383
  248DIO    C1855857   3.819   9.152   5.310
  248DIO    C1955858   3.687   9.197   5.352
  248DIO     F655859   3.625   9.285   5.270
  248DIO    C2055860   4.028   9.005   5.346
  248DIO     O355861   4.098   8.937   5.451
  248DIO    C2155862   4.142   9.024   5.555
  248DIO    C2255863   4.231   9.135   5.499
  248DIO    C2355864   4.150   9.206   5.390
  248DIO     O455865   4.106   9.112   5.291
  248DIO    C2455866   4.363   9.082   5.440
  248DIO    C2555867   4.454   9.006   5.537
  248DIO    C2655868   4.493   9.086   5.661
  248DIO     H155869   2.772   9.132   5.364
  248DIO     H255870   2.813   9.162   5.804
  248DIO     H355871   2.990   8.960   5.713
  248DIO     H455872   3.241   8.943   5.688
  248DIO     H555873   3.241   9.275   5.404
  248DIO     H655874   3.850   8.881   5.527
  248DIO     H755875   3.862   9.194   5.220
  248DIO     H855876   4.019   8.932   5.266
  248DIO     H955877   4.055   9.067   5.606
  248DIO    H1055878   4.195   8.964   5.629
  248DIO    H1155879   4.253   9.207   5.578
  248DIO    H1255880   4.211   9.281   5.339
  248DIO    H1355881   4.064   9.258   5.433
  248DIO    H1455882   4.344   9.016   5.354
  248DIO    H1555883   4.420   9.167   5.400
  248DIO    H1655884   4.407   8.912   5.568
  248DIO    H1755885   4.546   8.978   5.484
  248DIO    H1855886   4.536   9.183   5.633
  248DIO    H1955887   4.406   9.105   5.725
  248DIO    H2055888   4.566   9.031   5.720
  249DIO     F155889   5.682   5.315   1.493
  249DIO     C155890   5.760   5.415   1.538
  249DIO     C255891   5.904   5.398   1.540
  249DIO     C355892   5.993   5.505   1.590
  249DIO     C455893   5.927   5.630   1.636
  249DIO     C555894   5.783   5.644   1.633
  249DIO     F255895   5.728   5.761   1.672
  249DIO     C655896   5.699   5.538   1.584
  249DIO     F355897   5.566   5.552   1.583
  249DIO     C755898   6.139   5.490   1.594
  249DIO     C855899   6.216   5.518   1.717
  249DIO     C955900   6.361   5.504   1.721
  249DIO    C1055901   6.434   5.470   1.600
  249DIO    C1155902   6.361   5.433   1.479
  249DIO    C1255903   6.217   5.446   1.477
  249DIO     F455904   6.152   5.417   1.362
  249DIO     O155905   6.566   5.434   1.616
  249DIO    C1355906   6.660   5.465   1.519
  249DIO     O255907   6.661   5.547   1.423
  249DIO    C1455908   6.790   5.399   1.542
  249DIO    C1555909   6.856   5.404   1.675
  249DIO     F555910   6.793   5.460   1.780
  249DIO    C1655911   6.987   5.345   1.698
  249DIO    C1755912   7.062   5.286   1.589
  249DIO    C1855913   6.994   5.265   1.462
  249DIO    C1955914   6.862   5.322   1.439
  249DIO     F655915   6.800   5.287   1.324
  249DIO    C2055916   7.203   5.235   1.610
  249DIO     O355917   7.273   5.300   1.716
  249DIO    C2155918   7.317   5.431   1.682
  249DIO    C2255919   7.405   5.428   1.558
  249DIO    C2355920   7.325   5.360   1.448
  249DIO     O455921   7.280   5.231   1.489
  249DIO    C2455922   7.538   5.352   1.581
  249DIO    C2555923   7.629   5.408   1.691
  249DIO    C2655924   7.667   5.554   1.672
  249DIO     H155925   5.947   5.305   1.503
  249DIO     H255926   5.988   5.715   1.665
  249DIO     H355927   6.165   5.546   1.808
  249DIO     H455928   6.416   5.516   1.813
  249DIO     H555929   6.416   5.403   1.391
  249DIO     H655930   7.025   5.344   1.800
  249DIO     H755931   7.037   5.203   1.385
  249DIO     H855932   7.193   5.130   1.641
  249DIO     H955933   7.230   5.496   1.666
  249DIO    H1055934   7.369   5.473   1.768
  249DIO    H1155935   7.428   5.531   1.527
  249DIO    H1255936   7.386   5.347   1.358
  249DIO    H1355937   7.239   5.422   1.419
  249DIO    H1455938   7.518   5.247   1.603
  249DIO    H1555939   7.595   5.353   1.486
  249DIO    H1655940   7.582   5.395   1.789
  249DIO    H1755941   7.721   5.348   1.693
  249DIO    H1855942   7.711   5.570   1.573
  249DIO    H1955943   7.581   5.620   1.683
  249DIO    H2055944   7.741   5.583   1.747
  250DIO     F155945   3.780   9.243   2.704
  250DIO     C155946   3.858   9.344   2.748
  250DIO     C255947   4.002   9.327   2.750
  250DIO     C355948   4.091   9.435   2.799
  250DIO     C455949   4.025   9.560   2.843
  250DIO     C555950   3.881   9.574   2.840
  250DIO     F255951   3.825   9.692   2.877
  250DIO     C655952   3.797   9.467   2.792
  250DIO     F355953   3.663   9.481   2.791
  250DIO     C755954   4.237   9.419   2.803
  250DIO     C855955   4.314   9.450   2.926
  250DIO     C955956   4.459   9.435   2.929
  250DIO    C1055957   4.531   9.399   2.809
  250DIO    C1155958   4.459   9.361   2.689
  250DIO    C1255959   4.315   9.373   2.686
  250DIO     F455960   4.250   9.343   2.572
  250DIO     O155961   4.664   9.364   2.826
  250DIO    C1355962   4.758   9.393   2.728
  250DIO     O255963   4.759   9.474   2.631
  250DIO    C1455964   4.887   9.328   2.753
  250DIO    C1555965   4.954   9.334   2.885
  250DIO     F555966   4.891   9.393   2.989
  250DIO    C1655967   5.084   9.277   2.910
  250DIO    C1755968   5.160   9.215   2.801
  250DIO    C1855969   5.091   9.193   2.674
  250DIO    C1955970   4.960   9.249   2.650
  250DIO     F655971   4.897   9.212   2.537
  250DIO    C2055972   5.301   9.165   2.823
  250DIO     O355973   5.371   9.232   2.928
  250DIO    C2155974   5.414   9.362   2.892
  250DIO    C2255975   5.503   9.357   2.768
  250DIO    C2355976   5.422   9.287   2.659
  250DIO     O455977   5.378   9.159   2.702
  250DIO    C2455978   5.636   9.282   2.792
  250DIO    C2555979   5.727   9.339   2.901
  250DIO    C2655980   5.765   9.484   2.880
  250DIO     H155981   4.044   9.234   2.715
  250DIO     H255982   4.086   9.646   2.871
  250DIO     H355983   4.263   9.479   3.016
  250DIO     H455984   4.514   9.449   3.021
  250DIO     H555985   4.513   9.329   2.601
  250DIO     H655986   5.122   9.277   3.011
  250DIO     H755987   5.134   9.129   2.598
  250DIO     H855988   5.291   9.061   2.856
  250DIO     H955989   5.328   9.427   2.874
  250DIO    H1055990   5.467   9.405   2.977
  250DIO    H1155991   5.526   9.459   2.735
  250DIO    H1255992   5.483   9.273   2.569
  250DIO    H1355993   5.336   9.348   2.629
  250DIO    H1455994   5.616   9.177   2.816
  250DIO    H1555995   5.692   9.281   2.697
  250DIO    H1655996   5.679   9.328   2.999
  250DIO    H1755997   5.818   9.279   2.905
  250DIO    H1855998   5.809   9.499   2.781
  250DIO    H1955999   5.678   9.551   2.890
  250DIO    H2056000   5.839   9.515   2.955
  10.00000  10.00000  10.00000
