Built with Packmol
56000
    1DIO     F1    1   3.425   3.534   4.777
    1DIO     C1    2   3.347   3.555   4.669
    1DIO     C2    3   3.203   3.544   4.681
    1DIO     C3    4   3.114   3.565   4.565
    1DIO     C4    5   3.180   3.599   4.436
    1DIO     C5    6   3.324   3.610   4.426
    1DIO     F2    7   3.379   3.646   4.309
    1DIO     C6    8   3.408   3.589   4.542
    1DIO     F3    9   3.542   3.598   4.531
    1DIO     C7   10   2.968   3.552   4.575
    1DIO     C8   11   2.891   3.469   4.481
    1DIO     C9   12   2.746   3.457   4.491
    1DIO    C10   13   2.673   3.536   4.588
    1DIO    C11   14   2.746   3.614   4.688
    1DIO    C12   15   2.890   3.623   4.679
    1DIO     F4   16   2.955   3.700   4.769
    1DIO     O1   17   2.541   3.502   4.608
    1DIO    C13   18   2.447   3.600   4.639
    1DIO     O2   19   2.446   3.725   4.627
    1DIO    C14   20   2.318   3.542   4.679
    1DIO    C15   21   2.251   3.437   4.599
    1DIO     F5   22   2.314   3.384   4.492
    1DIO    C16   23   2.121   3.384   4.632
    1DIO    C17   24   2.045   3.439   4.744
    1DIO    C18   25   2.114   3.530   4.835
    1DIO    C19   26   2.245   3.582   4.802
    1DIO     F6   27   2.308   3.655   4.897
    1DIO    C20   28   1.904   3.392   4.774
    1DIO     O3   29   1.834   3.343   4.659
    1DIO    C21   30   1.791   3.447   4.572
    1DIO    C22   31   1.702   3.546   4.646
    1DIO    C23   32   1.783   3.597   4.766
    1DIO     O4   33   1.827   3.489   4.847
    1DIO    C24   34   1.569   3.484   4.695
    1DIO    C25   35   1.478   3.426   4.586
    1DIO    C26   36   1.440   3.526   4.478
    1DIO     H1   37   3.160   3.520   4.778
    1DIO     H2   38   3.119   3.625   4.350
    1DIO     H3   39   2.942   3.411   4.405
    1DIO     H4   40   2.691   3.390   4.427
    1DIO     H5   41   2.692   3.668   4.764
    1DIO     H6   42   2.082   3.300   4.575
    1DIO     H7   43   2.071   3.557   4.930
    1DIO     H8   44   1.914   3.306   4.841
    1DIO     H9   45   1.877   3.498   4.529
    1DIO    H10   46   1.738   3.401   4.488
    1DIO    H11   47   1.679   3.631   4.580
    1DIO    H12   48   1.721   3.663   4.828
    1DIO    H13   49   1.869   3.656   4.732
    1DIO    H14   50   1.589   3.405   4.768
    1DIO    H15   51   1.513   3.561   4.749
    1DIO    H16   52   1.526   3.339   4.540
    1DIO    H17   53   1.387   3.389   4.634
    1DIO    H18   54   1.396   3.616   4.522
    1DIO    H19   55   1.526   3.555   4.418
    1DIO    H20   56   1.366   3.482   4.410
    2DIO     F1   57   6.712   9.878   5.224
    2DIO     C1   58   6.634   9.945   5.137
    2DIO     C2   59   6.490   9.930   5.143
    2DIO     C3   60   6.401  10.000   5.048
    2DIO     C4   61   6.467  10.089   4.949
    2DIO     C5   62   6.611  10.103   4.945
    2DIO     F2   63   6.666  10.187   4.856
    2DIO     C6   64   6.695  10.032   5.039
    2DIO     F3   65   6.829  10.045   5.033
    2DIO     C7   66   6.255   9.985   5.052
    2DIO     C8   67   6.178   9.952   4.930
    2DIO     C9   68   6.033   9.937   4.934
    2DIO    C10   69   5.960   9.964   5.057
    2DIO    C11   70   6.033   9.989   5.180
    2DIO    C12   71   6.177  10.001   5.177
    2DIO     F4   72   6.242  10.029   5.291
    2DIO     O1   73   5.828   9.925   5.059
    2DIO    C13   74   5.734   9.998   5.131
    2DIO     O2   75   5.733  10.116   5.176
    2DIO    C14   76   5.605   9.929   5.140
    2DIO    C15   77   5.538   9.871   5.022
    2DIO     F5   78   5.601   9.871   4.902
    2DIO    C16   79   5.408   9.808   5.028
    2DIO    C17   80   5.332   9.807   5.153
    2DIO    C18   81   5.401   9.849   5.274
    2DIO    C19   82   5.532   9.910   5.268
    2DIO     F6   83   5.595   9.933   5.385
    2DIO    C20   84   5.191   9.753   5.158
    2DIO     O3   85   5.121   9.760   5.033
    2DIO    C21   86   5.078   9.892   5.002
    2DIO    C22   87   4.989   9.947   5.113
    2DIO    C23   88   5.070   9.939   5.242
    2DIO     O4   89   5.114   9.806   5.266
    2DIO    C24   90   4.856   9.870   5.129
    2DIO    C25   91   4.765   9.867   5.005
    2DIO    C26   92   4.727  10.005   4.954
    2DIO     H1   93   6.447   9.865   5.219
    2DIO     H2   94   6.406  10.150   4.883
    2DIO     H3   95   6.229   9.934   4.837
    2DIO     H4   96   5.978   9.906   4.846
    2DIO     H5   97   5.979  10.004   5.272
    2DIO     H6   98   5.369   9.760   4.939
    2DIO     H7   99   5.358   9.830   5.372
    2DIO     H8  100   5.201   9.646   5.180
    2DIO     H9  101   5.164   9.957   4.986
    2DIO    H10  102   5.025   9.888   4.907
    2DIO    H11  103   4.966  10.053   5.092
    2DIO    H12  104   5.008   9.970   5.328
    2DIO    H13  105   5.156  10.007   5.239
    2DIO    H14  106   4.876   9.766   5.159
    2DIO    H15  107   4.800   9.915   5.211
    2DIO    H16  108   4.813   9.810   4.925
    2DIO    H17  109   4.674   9.813   5.031
    2DIO    H18  110   4.683  10.066   5.033
    2DIO    H19  111   4.813  10.058   4.913
    2DIO    H20  112   4.653   9.995   4.873
    3DIO     F1  113   7.487  -0.855   0.778
    3DIO     C1  114   7.410  -0.747   0.757
    3DIO     C2  115   7.265  -0.763   0.751
    3DIO     C3  116   7.177  -0.647   0.726
    3DIO     C4  117   7.242  -0.515   0.710
    3DIO     C5  118   7.386  -0.502   0.716
    3DIO     F2  119   7.442  -0.380   0.705
    3DIO     C6  120   7.470  -0.617   0.740
    3DIO     F3  121   7.604  -0.603   0.744
    3DIO     C7  122   7.030  -0.661   0.719
    3DIO     C8  123   6.953  -0.606   0.606
    3DIO     C9  124   6.808  -0.619   0.599
    3DIO    C10  125   6.736  -0.680   0.709
    3DIO    C11  126   6.808  -0.742   0.818
    3DIO    C12  127   6.952  -0.731   0.824
    3DIO     F4  128   7.017  -0.785   0.929
    3DIO     O1  129   6.604  -0.711   0.685
    3DIO    C13  130   6.509  -0.703   0.787
    3DIO     O2  131   6.508  -0.644   0.899
    3DIO    C14  132   6.380  -0.761   0.749
    3DIO    C15  133   6.314  -0.727   0.621
    3DIO     F5  134   6.376  -0.648   0.532
    3DIO    C16  135   6.183  -0.778   0.585
    3DIO    C17  136   6.107  -0.861   0.678
    3DIO    C18  137   6.176  -0.910   0.797
    3DIO    C19  138   6.308  -0.859   0.833
    3DIO     F6  139   6.370  -0.920   0.936
    3DIO    C20  140   5.966  -0.906   0.646
    3DIO     O3  141   5.897  -0.818   0.557
    3DIO    C21  142   5.853  -0.699   0.620
    3DIO    C22  143   5.764  -0.729   0.740
    3DIO    C23  144   5.845  -0.821   0.833
    3DIO     O4  145   5.889  -0.937   0.763
    3DIO    C24  146   5.631  -0.798   0.701
    3DIO    C25  147   5.541  -0.719   0.606
    3DIO    C26  148   5.502  -0.581   0.658
    3DIO     H1  149   7.223  -0.861   0.766
    3DIO     H2  150   7.182  -0.426   0.701
    3DIO     H3  151   7.005  -0.558   0.523
    3DIO     H4  152   6.753  -0.586   0.512
    3DIO     H5  153   6.754  -0.792   0.897
    3DIO     H6  154   6.145  -0.757   0.486
    3DIO     H7  155   6.133  -0.988   0.858
    3DIO     H8  156   5.976  -1.001   0.592
    3DIO     H9  157   5.940  -0.639   0.651
    3DIO    H10  158   5.800  -0.639   0.546
    3DIO    H11  159   5.742  -0.636   0.794
    3DIO    H12  160   5.784  -0.854   0.917
    3DIO    H13  161   5.931  -0.767   0.875
    3DIO    H14  162   5.651  -0.896   0.656
    3DIO    H15  163   5.575  -0.818   0.793
    3DIO    H16  164   5.588  -0.709   0.508
    3DIO    H17  165   5.449  -0.777   0.590
    3DIO    H18  166   5.458  -0.588   0.758
    3DIO    H19  167   5.589  -0.515   0.662
    3DIO    H20  168   5.429  -0.536   0.591
    4DIO     F1  169  10.831  10.597  -0.032
    4DIO     C1  170  10.753  10.691   0.024
    4DIO     C2  171  10.609  10.683   0.009
    4DIO     C3  172  10.520  10.786   0.068
    4DIO     C4  173  10.586  10.895   0.144
    4DIO     C5  174  10.730  10.901   0.157
    4DIO     F2  175  10.785  10.999   0.230
    4DIO     C6  176  10.814  10.799   0.098
    4DIO     F3  177  10.948  10.806   0.110
    4DIO     C7  178  10.374  10.780   0.053
    4DIO     C8  179  10.297  10.897   0.006
    4DIO     C9  180  10.152  10.892  -0.008
    4DIO    C10  181  10.079  10.773   0.033
    4DIO    C11  182  10.152  10.654   0.073
    4DIO    C12  183  10.296  10.659   0.084
    4DIO     F4  184  10.361  10.548   0.126
    4DIO     O1  185   9.947  10.766  -0.005
    4DIO    C13  186   9.853  10.704   0.076
    4DIO     O2  187   9.852  10.673   0.198
    4DIO    C14  188   9.724  10.686   0.009
    4DIO    C15  189   9.657  10.797  -0.064
    4DIO     F5  190   9.720  10.915  -0.078
    4DIO    C16  191   9.527  10.783  -0.125
    4DIO    C17  192   9.451  10.659  -0.111
    4DIO    C18  193   9.520  10.543  -0.055
    4DIO    C19  194   9.651  10.557   0.005
    4DIO     F6  195   9.714  10.443   0.042
    4DIO    C20  196   9.310  10.647  -0.164
    4DIO     O3  197   9.240  10.771  -0.173
    4DIO    C21  198   9.197  10.818  -0.045
    4DIO    C22  199   9.108  10.715   0.023
    4DIO    C23  200   9.189  10.586   0.031
    4DIO     O4  201   9.233  10.546  -0.098
    4DIO    C24  202   8.975  10.690  -0.052
    4DIO    C25  203   8.884  10.812  -0.070
    4DIO    C26  204   8.846  10.880   0.061
    4DIO     H1  205  10.566  10.600  -0.046
    4DIO     H2  206  10.525  10.968   0.197
    4DIO     H3  207  10.348  10.988  -0.024
    4DIO     H4  208  10.097  10.975  -0.051
    4DIO     H5  209  10.098  10.564   0.098
    4DIO     H6  210   9.488  10.865  -0.184
    4DIO     H7  211   9.477  10.444  -0.062
    4DIO     H8  212   9.320  10.612  -0.268
    4DIO     H9  213   9.283  10.842   0.017
    4DIO    H10  214   9.144  10.913  -0.061
    4DIO    H11  215   9.085  10.749   0.125
    4DIO    H12  216   9.127  10.505   0.072
    4DIO    H13  217   9.275  10.597   0.098
    4DIO    H14  218   8.995  10.648  -0.151
    4DIO    H15  219   8.919  10.614   0.003
    4DIO    H16  220   8.932  10.885  -0.136
    4DIO    H17  221   8.793  10.780  -0.120
    4DIO    H18  222   8.802  10.809   0.131
    4DIO    H19  223   8.932  10.927   0.109
    4DIO    H20  224   8.772  10.959   0.042
    5DIO     F1  225   6.818   5.393   2.038
    5DIO     C1  226   6.740   5.361   2.144
    5DIO     C2  227   6.596   5.374   2.132
    5DIO     C3  228   6.507   5.342   2.246
    5DIO     C4  229   6.573   5.294   2.370
    5DIO     C5  230   6.717   5.283   2.379
    5DIO     F2  231   6.773   5.235   2.493
    5DIO     C6  232   6.801   5.315   2.266
    5DIO     F3  233   6.935   5.305   2.276
    5DIO     C7  234   6.361   5.355   2.237
    5DIO     C8  235   6.284   5.429   2.339
    5DIO     C9  236   6.139   5.441   2.331
    5DIO    C10  237   6.067   5.372   2.226
    5DIO    C11  238   6.139   5.305   2.119
    5DIO    C12  239   6.283   5.295   2.127
    5DIO     F4  240   6.348   5.227   2.029
    5DIO     O1  241   5.934   5.408   2.209
    5DIO    C13  242   5.840   5.314   2.169
    5DIO     O2  243   5.839   5.188   2.168
    5DIO    C14  244   5.711   5.375   2.135
    5DIO    C15  245   5.645   5.472   2.225
    5DIO     F5  246   5.707   5.514   2.337
    5DIO    C16  247   5.514   5.528   2.197
    5DIO    C17  248   5.438   5.484   2.080
    5DIO    C18  249   5.507   5.402   1.981
    5DIO    C19  250   5.638   5.347   2.009
    5DIO     F6  251   5.701   5.284   1.907
    5DIO    C20  252   5.297   5.533   2.055
    5DIO     O3  253   5.228   5.571   2.174
    5DIO    C21  254   5.184   5.459   2.250
    5DIO    C22  255   5.095   5.368   2.167
    5DIO    C23  256   5.176   5.329   2.043
    5DIO     O4  257   5.220   5.445   1.973
    5DIO    C24  258   4.962   5.434   2.125
    5DIO    C25  259   4.872   5.481   2.239
    5DIO    C26  260   4.833   5.371   2.336
    5DIO     H1  261   6.554   5.407   2.038
    5DIO     H2  262   6.512   5.260   2.454
    5DIO     H3  263   6.335   5.479   2.420
    5DIO     H4  264   6.084   5.502   2.401
    5DIO     H5  265   6.085   5.258   2.038
    5DIO     H6  266   5.476   5.605   2.262
    5DIO     H7  267   5.464   5.385   1.883
    5DIO     H8  268   5.307   5.626   1.997
    5DIO     H9  269   5.271   5.404   2.289
    5DIO    H10  270   5.131   5.497   2.338
    5DIO    H11  271   5.072   5.277   2.224
    5DIO    H12  272   5.115   5.270   1.974
    5DIO    H13  273   5.262   5.267   2.070
    5DIO    H14  274   4.982   5.521   2.060
    5DIO    H15  275   4.906   5.363   2.063
    5DIO    H16  276   4.919   5.564   2.293
    5DIO    H17  277   4.780   5.523   2.195
    5DIO    H18  278   4.789   5.286   2.284
    5DIO    H19  279   4.920   5.336   2.393
    5DIO    H20  280   4.759   5.409   2.408
    6DIO     F1  281   1.255   1.975  -0.475
    6DIO     C1  282   1.177   1.979  -0.365
    6DIO     C2  283   1.033   1.987  -0.380
    6DIO     C3  284   0.944   1.994  -0.262
    6DIO     C4  285   1.010   1.990  -0.129
    6DIO     C5  286   1.154   1.982  -0.116
    6DIO     F2  287   1.210   1.974   0.006
    6DIO     C6  288   1.238   1.976  -0.234
    6DIO     F3  289   1.372   1.970  -0.221
    6DIO     C7  290   0.798   2.004  -0.275
    6DIO     C8  291   0.721   2.107  -0.202
    6DIO     C9  292   0.576   2.116  -0.214
    6DIO    C10  293   0.504   2.016  -0.291
    6DIO    C11  294   0.576   1.918  -0.370
    6DIO    C12  295   0.720   1.911  -0.359
    6DIO     F4  296   0.785   1.816  -0.429
    6DIO     O1  297   0.371   2.045  -0.318
    6DIO    C13  298   0.277   1.943  -0.326
    6DIO     O2  299   0.276   1.824  -0.285
    6DIO    C14  300   0.148   1.989  -0.378
    6DIO    C15  301   0.081   2.110  -0.324
    6DIO     F5  302   0.144   2.187  -0.232
    6DIO    C16  303  -0.049   2.154  -0.369
    6DIO    C17  304  -0.125   2.075  -0.465
    6DIO    C18  305  -0.056   1.965  -0.532
    6DIO    C19  306   0.075   1.922  -0.488
    6DIO     F6  307   0.138   1.830  -0.564
    6DIO    C20  308  -0.266   2.113  -0.505
    6DIO     O3  309  -0.336   2.188  -0.404
    6DIO    C21  310  -0.379   2.107  -0.296
    6DIO    C22  311  -0.468   1.993  -0.345
    6DIO    C23  312  -0.387   1.916  -0.449
    6DIO     O4  313  -0.343   2.003  -0.553
    6DIO    C24  314  -0.601   2.042  -0.407
    6DIO    C25  315  -0.692   2.124  -0.314
    6DIO    C26  316  -0.730   2.051  -0.186
    6DIO     H1  317   0.991   1.988  -0.479
    6DIO     H2  318   0.949   1.985  -0.039
    6DIO     H3  319   0.772   2.181  -0.142
    6DIO     H4  320   0.521   2.196  -0.167
    6DIO     H5  321   0.522   1.848  -0.431
    6DIO     H6  322  -0.087   2.249  -0.332
    6DIO     H7  323  -0.099   1.917  -0.619
    6DIO     H8  324  -0.256   2.182  -0.590
    6DIO     H9  325  -0.293   2.067  -0.242
    6DIO    H10  326  -0.432   2.171  -0.225
    6DIO    H11  327  -0.491   1.926  -0.262
    6DIO    H12  328  -0.448   1.838  -0.495
    6DIO    H13  329  -0.301   1.866  -0.403
    6DIO    H14  330  -0.581   2.103  -0.496
    6DIO    H15  331  -0.657   1.955  -0.441
    6DIO    H16  332  -0.644   2.220  -0.289
    6DIO    H17  333  -0.783   2.149  -0.369
    6DIO    H18  334  -0.774   1.954  -0.208
    6DIO    H19  335  -0.643   2.037  -0.121
    6DIO    H20  336  -0.804   2.110  -0.130
    7DIO     F1  337   4.739   6.109   6.423
    7DIO     C1  338   4.662   6.217   6.446
    7DIO     C2  339   4.518   6.205   6.435
    7DIO     C3  340   4.429   6.321   6.457
    7DIO     C4  341   4.494   6.449   6.493
    7DIO     C5  342   4.639   6.459   6.504
    7DIO     F2  343   4.694   6.576   6.542
    7DIO     C6  344   4.722   6.343   6.481
    7DIO     F3  345   4.856   6.354   6.491
    7DIO     C7  346   4.282   6.311   6.445
    7DIO     C8  347   4.205   6.406   6.362
    7DIO     C9  348   4.061   6.397   6.351
    7DIO    C10  349   3.988   6.298   6.428
    7DIO    C11  350   4.060   6.197   6.504
    7DIO    C12  351   4.205   6.206   6.514
    7DIO     F4  352   4.269   6.115   6.589
    7DIO     O1  353   3.856   6.279   6.394
    7DIO    C13  354   3.761   6.246   6.491
    7DIO     O2  355   3.760   6.256   6.617
    7DIO    C14  356   3.632   6.207   6.433
    7DIO    C15  357   3.566   6.289   6.329
    7DIO     F5  358   3.628   6.396   6.277
    7DIO    C16  359   3.435   6.256   6.275
    7DIO    C17  360   3.359   6.143   6.329
    7DIO    C18  361   3.428   6.052   6.419
    7DIO    C19  362   3.560   6.084   6.472
    7DIO     F6  363   3.622   5.988   6.543
    7DIO    C20  364   3.219   6.114   6.282
    7DIO     O3  365   3.149   6.230   6.234
    7DIO    C21  366   3.105   6.315   6.339
    7DIO    C22  367   3.016   6.240   6.438
    7DIO    C23  368   3.097   6.120   6.487
    7DIO     O4  369   3.141   6.040   6.377
    7DIO    C24  370   2.883   6.192   6.375
    7DIO    C25  371   2.793   6.302   6.318
    7DIO    C26  372   2.754   6.408   6.420
    7DIO     H1  373   4.475   6.108   6.410
    7DIO     H2  374   4.434   6.535   6.520
    7DIO     H3  375   4.257   6.482   6.305
    7DIO     H4  376   4.005   6.461   6.284
    7DIO     H5  377   4.006   6.121   6.558
    7DIO     H6  378   3.397   6.314   6.193
    7DIO     H7  379   3.385   5.955   6.445
    7DIO     H8  380   3.228   6.048   6.195
    7DIO     H9  381   3.192   6.358   6.391
    7DIO    H10  382   3.052   6.399   6.294
    7DIO    H11  383   2.994   6.304   6.523
    7DIO    H12  384   3.036   6.056   6.552
    7DIO    H13  385   3.183   6.152   6.546
    7DIO    H14  386   2.903   6.120   6.294
    7DIO    H15  387   2.827   6.137   6.451
    7DIO    H16  388   2.840   6.349   6.232
    7DIO    H17  389   2.701   6.254   6.281
    7DIO    H18  390   2.710   6.363   6.509
    7DIO    H19  391   2.841   6.468   6.450
    7DIO    H20  392   2.681   6.476   6.376
    8DIO     F1  393  10.155  10.041   2.259
    8DIO     C1  394  10.077  10.148   2.234
    8DIO     C2  395   9.933  10.132   2.229
    8DIO     C3  396   9.845  10.246   2.200
    8DIO     C4  397   9.910  10.378   2.179
    8DIO     C5  398  10.054  10.391   2.185
    8DIO     F2  399  10.110  10.513   2.169
    8DIO     C6  400  10.138  10.277   2.212
    8DIO     F3  401  10.272  10.291   2.216
    8DIO     C7  402   9.698  10.232   2.193
    8DIO     C8  403   9.621  10.284   2.078
    8DIO     C9  404   9.476  10.270   2.072
    8DIO    C10  405   9.404  10.213   2.184
    8DIO    C11  406   9.476  10.154   2.295
    8DIO    C12  407   9.620  10.166   2.300
    8DIO     F4  408   9.685  10.115   2.407
    8DIO     O1  409   9.272  10.182   2.161
    8DIO    C13  410   9.177  10.193   2.263
    8DIO     O2  411   9.176  10.255   2.372
    8DIO    C14  412   9.048  10.133   2.226
    8DIO    C15  413   8.982  10.163   2.098
    8DIO     F5  414   9.044  10.239   2.005
    8DIO    C16  415   8.851  10.111   2.063
    8DIO    C17  416   8.775  10.031   2.159
    8DIO    C18  417   8.844   9.986   2.279
    8DIO    C19  418   8.975  10.038   2.313
    8DIO     F6  419   9.038   9.981   2.418
    8DIO    C20  420   8.634   9.985   2.129
    8DIO     O3  421   8.565  10.070   2.036
    8DIO    C21  422   8.521  10.191   2.096
    8DIO    C22  423   8.432  10.165   2.217
    8DIO    C23  424   8.513  10.077   2.312
    8DIO     O4  425   8.557   9.958   2.246
    8DIO    C24  426   8.299  10.095   2.180
    8DIO    C25  427   8.209  10.170   2.082
    8DIO    C26  428   8.170  10.310   2.129
    8DIO     H1  429   9.891  10.034   2.247
    8DIO     H2  430   9.849  10.467   2.167
    8DIO     H3  431   9.673  10.329   1.994
    8DIO     H4  432   9.421  10.301   1.984
    8DIO     H5  433   9.422  10.107   2.376
    8DIO     H6  434   8.813  10.129   1.963
    8DIO     H7  435   8.801   9.910   2.343
    8DIO     H8  436   8.644   9.889   2.077
    8DIO     H9  437   8.608  10.252   2.124
    8DIO    H10  438   8.468  10.249   2.019
    8DIO    H11  439   8.410  10.259   2.267
    8DIO    H12  440   8.452  10.046   2.397
    8DIO    H13  441   8.599  10.131   2.352
    8DIO    H14  442   8.319   9.995   2.137
    8DIO    H15  443   8.243  10.077   2.272
    8DIO    H16  444   8.256  10.177   1.984
    8DIO    H17  445   8.117  10.112   2.068
    8DIO    H18  446   8.126  10.307   2.230
    8DIO    H19  447   8.257  10.377   2.131
    8DIO    H20  448   8.097  10.353   2.061
    9DIO     F1  449   1.339   7.124   6.640
    9DIO     C1  450   1.262   7.149   6.533
    9DIO     C2  451   1.118   7.137   6.546
    9DIO     C3  452   1.029   7.161   6.430
    9DIO     C4  453   1.094   7.200   6.302
    9DIO     C5  454   1.239   7.211   6.293
    9DIO     F2  455   1.294   7.250   6.176
    9DIO     C6  456   1.322   7.186   6.408
    9DIO     F3  457   1.456   7.195   6.397
    9DIO     C7  458   0.882   7.149   6.440
    9DIO     C8  459   0.805   7.068   6.343
    9DIO     C9  460   0.661   7.056   6.352
    9DIO    C10  461   0.588   7.132   6.452
    9DIO    C11  462   0.661   7.206   6.554
    9DIO    C12  463   0.805   7.216   6.546
    9DIO     F4  464   0.870   7.290   6.638
    9DIO     O1  465   0.456   7.098   6.471
    9DIO    C13  466   0.361   7.194   6.505
    9DIO     O2  467   0.360   7.320   6.497
    9DIO    C14  468   0.232   7.136   6.543
    9DIO    C15  469   0.166   7.033   6.460
    9DIO     F5  470   0.229   6.983   6.351
    9DIO    C16  471   0.035   6.978   6.492
    9DIO    C17  472  -0.041   7.030   6.605
    9DIO    C18  473   0.028   7.119   6.698
    9DIO    C19  474   0.160   7.172   6.667
    9DIO     F6  475   0.222   7.242   6.764
    9DIO    C20  476  -0.181   6.983   6.633
    9DIO     O3  477  -0.251   6.937   6.517
    9DIO    C21  478  -0.295   7.043   6.433
    9DIO    C22  479  -0.384   7.140   6.510
    9DIO    C23  480  -0.303   7.188   6.631
    9DIO     O4  481  -0.259   7.077   6.709
    9DIO    C24  482  -0.516   7.077   6.557
    9DIO    C25  483  -0.607   7.022   6.447
    9DIO    C26  484  -0.646   7.125   6.342
    9DIO     H1  485   1.075   7.110   6.642
    9DIO     H2  486   1.034   7.228   6.217
    9DIO     H3  487   0.857   7.012   6.266
    9DIO     H4  488   0.606   6.990   6.286
    9DIO     H5  489   0.606   7.258   6.632
    9DIO     H6  490  -0.003   6.897   6.432
    9DIO     H7  491  -0.015   7.143   6.795
    9DIO     H8  492  -0.172   6.895   6.698
    9DIO     H9  493  -0.208   7.095   6.392
    9DIO    H10  494  -0.348   6.999   6.348
    9DIO    H11  495  -0.406   7.227   6.447
    9DIO    H12  496  -0.364   7.251   6.696
    9DIO    H13  497  -0.217   7.248   6.600
    9DIO    H14  498  -0.497   6.995   6.628
    9DIO    H15  499  -0.573   7.152   6.613
    9DIO    H16  500  -0.560   6.936   6.398
    9DIO    H17  501  -0.699   6.984   6.493
    9DIO    H18  502  -0.689   7.214   6.388
    9DIO    H19  503  -0.559   7.156   6.283
    9DIO    H20  504  -0.719   7.083   6.273
   10DIO     F1  505   8.070   4.321   8.600
   10DIO     C1  506   7.992   4.339   8.491
   10DIO     C2  507   7.848   4.328   8.504
   10DIO     C3  508   7.759   4.344   8.387
   10DIO     C4  509   7.825   4.375   8.257
   10DIO     C5  510   7.969   4.385   8.247
   10DIO     F2  511   8.024   4.417   8.128
   10DIO     C6  512   8.053   4.368   8.363
   10DIO     F3  513   8.187   4.376   8.352
   10DIO     C7  514   7.613   4.333   8.398
   10DIO     C8  515   7.536   4.246   8.306
   10DIO     C9  516   7.391   4.235   8.316
   10DIO    C10  517   7.318   4.317   8.411
   10DIO    C11  518   7.391   4.398   8.508
   10DIO    C12  519   7.535   4.407   8.499
   10DIO     F4  520   7.600   4.487   8.586
   10DIO     O1  521   7.186   4.284   8.432
   10DIO    C13  522   7.092   4.382   8.460
   10DIO     O2  523   7.091   4.507   8.443
   10DIO    C14  524   6.963   4.326   8.501
   10DIO    C15  525   6.896   4.218   8.425
   10DIO     F5  526   6.959   4.161   8.320
   10DIO    C16  527   6.766   4.166   8.461
   10DIO    C17  528   6.690   4.225   8.571
   10DIO    C18  529   6.759   4.320   8.658
   10DIO    C19  530   6.890   4.370   8.623
   10DIO     F6  531   6.953   4.447   8.715
   10DIO    C20  532   6.549   4.180   8.602
   10DIO     O3  533   6.479   4.126   8.489
   10DIO    C21  534   6.436   4.227   8.398
   10DIO    C22  535   6.347   4.329   8.469
   10DIO    C23  536   6.428   4.384   8.586
   10DIO     O4  537   6.472   4.278   8.671
   10DIO    C24  538   6.214   4.269   8.520
   10DIO    C25  539   6.123   4.207   8.413
   10DIO    C26  540   6.085   4.303   8.301
   10DIO     H1  541   7.805   4.307   8.601
   10DIO     H2  542   7.764   4.397   8.170
   10DIO     H3  543   7.587   4.185   8.233
   10DIO     H4  544   7.336   4.165   8.255
   10DIO     H5  545   7.337   4.455   8.582
   10DIO     H6  546   6.727   4.081   8.406
   10DIO     H7  547   6.716   4.350   8.752
   10DIO     H8  548   6.559   4.096   8.672
   10DIO     H9  549   6.522   4.276   8.353
   10DIO    H10  550   6.383   4.178   8.316
   10DIO    H11  551   6.324   4.411   8.400
   10DIO    H12  552   6.366   4.452   8.647
   10DIO    H13  553   6.514   4.442   8.551
   10DIO    H14  554   6.234   4.192   8.595
   10DIO    H15  555   6.158   4.348   8.571
   10DIO    H16  556   6.171   4.118   8.370
   10DIO    H17  557   6.032   4.172   8.462
   10DIO    H18  558   6.041   4.395   8.342
   10DIO    H19  559   6.171   4.330   8.240
   10DIO    H20  560   6.011   4.256   8.235
   11DIO     F1  561   5.027   9.040  10.535
   11DIO     C1  562   4.949   9.112  10.618
   11DIO     C2  563   4.805   9.109  10.602
   11DIO     C3  564   4.716   9.188  10.690
   11DIO     C4  565   4.782   9.267  10.797
   11DIO     C5  566   4.926   9.268  10.811
   11DIO     F2  567   4.981   9.338  10.912
   11DIO     C6  568   5.010   9.191  10.723
   11DIO     F3  569   5.144   9.193  10.737
   11DIO     C7  570   4.570   9.187  10.674
   11DIO     C8  571   4.493   9.313  10.667
   11DIO     C9  572   4.348   9.312  10.652
   11DIO    C10  573   4.275   9.187  10.653
   11DIO    C11  574   4.348   9.061  10.653
   11DIO    C12  575   4.492   9.062  10.665
   11DIO     F4  576   4.557   8.943  10.670
   11DIO     O1  577   4.143   9.192  10.614
   11DIO    C13  578   4.049   9.107  10.672
   11DIO     O2  579   4.048   9.039  10.778
   11DIO    C14  580   3.920   9.112  10.602
   11DIO    C15  581   3.853   9.240  10.569
   11DIO     F5  582   3.916   9.357  10.593
   11DIO    C16  583   3.723   9.246  10.506
   11DIO    C17  584   3.647   9.124  10.480
   11DIO    C18  585   3.716   8.997  10.496
   11DIO    C19  586   3.847   8.991  10.557
   11DIO     F6  587   3.910   8.871  10.556
   11DIO    C20  588   3.506   9.130  10.425
   11DIO     O3  589   3.436   9.251  10.458
   11DIO    C21  590   3.393   9.255  10.593
   11DIO    C22  591   3.304   9.135  10.625
   11DIO    C23  592   3.385   9.010  10.591
   11DIO     O4  593   3.429   9.013  10.456
   11DIO    C24  594   3.171   9.135  10.546
   11DIO    C25  595   3.080   9.257  10.568
   11DIO    C26  596   3.042   9.279  10.713
   11DIO     H1  597   4.762   9.048  10.523
   11DIO     H2  598   4.721   9.319  10.870
   11DIO     H3  599   4.544   9.408  10.668
   11DIO     H4  600   4.293   9.404  10.638
   11DIO     H5  601   4.294   8.967  10.648
   11DIO     H6  602   3.684   9.343  10.476
   11DIO     H7  603   3.673   8.905  10.458
   11DIO     H8  604   3.516   9.130  10.316
   11DIO     H9  605   3.479   9.257  10.660
   11DIO    H10  606   3.340   9.349  10.608
   11DIO    H11  607   3.281   9.134  10.732
   11DIO    H12  608   3.323   8.920  10.604
   11DIO    H13  609   3.471   8.999  10.658
   11DIO    H14  610   3.191   9.127  10.439
   11DIO    H15  611   3.115   9.045  10.574
   11DIO    H16  612   3.128   9.347  10.528
   11DIO    H17  613   2.989   9.242  10.510
   11DIO    H18  614   2.998   9.189  10.757
   11DIO    H19  615   3.128   9.309  10.774
   11DIO    H20  616   2.968   9.360  10.720
   12DIO     F1  617   6.686   9.605   8.754
   12DIO     C1  618   6.608   9.699   8.698
   12DIO     C2  619   6.464   9.682   8.698
   12DIO     C3  620   6.375   9.783   8.635
   12DIO     C4  621   6.441   9.902   8.576
   12DIO     C5  622   6.585   9.916   8.577
   12DIO     F2  623   6.641  10.028   8.525
   12DIO     C6  624   6.669   9.816   8.638
   12DIO     F3  625   6.803   9.830   8.638
   12DIO     C7  626   6.229   9.767   8.633
   12DIO     C8  627   6.152   9.782   8.508
   12DIO     C9  628   6.007   9.767   8.506
   12DIO    C10  629   5.935   9.747   8.630
   12DIO    C11  630   6.007   9.724   8.754
   12DIO    C12  631   6.151   9.737   8.755
   12DIO     F4  632   6.216   9.721   8.872
   12DIO     O1  633   5.802   9.709   8.618
   12DIO    C13  634   5.708   9.751   8.711
   12DIO     O2  635   5.707   9.844   8.797
   12DIO    C14  636   5.579   9.683   8.695
   12DIO    C15  637   5.513   9.673   8.563
   12DIO     F5  638   5.575   9.717   8.452
   12DIO    C16  639   5.382   9.612   8.546
   12DIO    C17  640   5.306   9.565   8.661
   12DIO    C18  641   5.375   9.559   8.790
   12DIO    C19  642   5.506   9.618   8.807
   12DIO     F6  643   5.569   9.596   8.924
   12DIO    C20  644   5.165   9.512   8.647
   12DIO     O3  645   5.096   9.565   8.533
   12DIO    C21  646   5.052   9.699   8.553
   12DIO    C22  647   4.963   9.710   8.676
   12DIO    C23  648   5.044   9.655   8.794
   12DIO     O4  649   5.088   9.522   8.767
   12DIO    C24  650   4.830   9.632   8.662
   12DIO    C25  651   4.740   9.675   8.546
   12DIO    C26  652   4.701   9.822   8.549
   12DIO     H1  653   6.422   9.594   8.744
   12DIO     H2  654   6.380   9.983   8.537
   12DIO     H3  655   6.203   9.799   8.414
   12DIO     H4  656   5.952   9.769   8.413
   12DIO     H5  657   5.953   9.704   8.845
   12DIO     H6  658   5.344   9.599   8.445
   12DIO     H7  659   5.332   9.506   8.874
   12DIO     H8  660   5.175   9.405   8.627
   12DIO     H9  661   5.139   9.765   8.562
   12DIO    H10  662   4.999   9.731   8.462
   12DIO    H11  663   4.940   9.815   8.695
   12DIO    H12  664   4.983   9.652   8.884
   12DIO    H13  665   5.130   9.719   8.815
   12DIO    H14  666   4.850   9.525   8.652
   12DIO    H15  667   4.774   9.644   8.756
   12DIO    H16  668   4.787   9.651   8.450
   12DIO    H17  669   4.648   9.615   8.551
   12DIO    H18  670   4.657   9.850   8.645
   12DIO    H19  671   4.788   9.886   8.531
   12DIO    H20  672   4.627   9.843   8.471
   13DIO     F1  673   9.009   3.101   5.306
   13DIO     C1  674   8.932   3.183   5.379
   13DIO     C2  675   8.788   3.178   5.363
   13DIO     C3  676   8.699   3.268   5.440
   13DIO     C4  677   8.764   3.361   5.535
   13DIO     C5  678   8.909   3.364   5.549
   13DIO     F2  679   8.964   3.447   5.639
   13DIO     C6  680   8.992   3.275   5.472
   13DIO     F3  681   9.126   3.280   5.485
   13DIO     C7  682   8.552   3.265   5.424
   13DIO     C8  683   8.475   3.389   5.400
   13DIO     C9  684   8.331   3.386   5.385
   13DIO    C10  685   8.258   3.262   5.403
   13DIO    C11  686   8.330   3.137   5.420
   13DIO    C12  687   8.475   3.140   5.432
   13DIO     F4  688   8.539   3.023   5.453
   13DIO     O1  689   8.126   3.262   5.364
   13DIO    C13  690   8.031   3.186   5.432
   13DIO     O2  691   8.030   3.133   5.547
   13DIO    C14  692   7.902   3.181   5.363
   13DIO    C15  693   7.836   3.303   5.313
   13DIO     F5  694   7.898   3.422   5.321
   13DIO    C16  695   7.705   3.301   5.250
   13DIO    C17  696   7.629   3.177   5.240
   13DIO    C18  697   7.698   3.053   5.274
   13DIO    C19  698   7.830   3.055   5.335
   13DIO     F6  699   7.892   2.936   5.350
   13DIO    C20  700   7.489   3.175   5.185
   13DIO     O3  701   7.419   3.299   5.201
   13DIO    C21  702   7.375   3.321   5.335
   13DIO    C22  703   7.286   3.207   5.383
   13DIO    C23  704   7.367   3.078   5.366
   13DIO     O4  705   7.411   3.064   5.231
   13DIO    C24  706   7.153   3.197   5.304
   13DIO    C25  707   7.063   3.320   5.310
   13DIO    C26  708   7.024   3.362   5.451
   13DIO     H1  709   8.745   3.107   5.293
   13DIO     H2  710   8.704   3.422   5.601
   13DIO     H3  711   8.527   3.483   5.388
   13DIO     H4  712   8.275   3.476   5.359
   13DIO     H5  713   8.276   3.044   5.428
   13DIO     H6  714   7.667   3.393   5.207
   13DIO     H7  715   7.655   2.957   5.248
   13DIO     H8  716   7.498   3.161   5.077
   13DIO     H9  717   7.462   3.333   5.400
   13DIO    H10  718   7.322   3.417   5.337
   13DIO    H11  719   7.264   3.221   5.489
   13DIO    H12  720   7.306   2.991   5.391
   13DIO    H13  721   7.453   3.077   5.434
   13DIO    H14  722   7.173   3.174   5.199
   13DIO    H15  723   7.097   3.111   5.344
   13DIO    H16  724   7.110   3.404   5.258
   13DIO    H17  725   6.971   3.297   5.254
   13DIO    H18  726   6.980   3.279   5.506
   13DIO    H19  727   7.111   3.399   5.506
   13DIO    H20  728   6.951   3.443   5.447
   14DIO     F1  729   3.889   6.679   8.050
   14DIO     C1  730   3.812   6.789   8.060
   14DIO     C2  731   3.668   6.775   8.050
   14DIO     C3  732   3.579   6.893   8.057
   14DIO     C4  733   3.644   7.025   8.078
   14DIO     C5  734   3.789   7.036   8.087
   14DIO     F2  735   3.844   7.156   8.110
   14DIO     C6  736   3.872   6.919   8.079
   14DIO     F3  737   4.006   6.930   8.087
   14DIO     C7  738   3.433   6.881   8.047
   14DIO     C8  739   3.355   6.966   7.953
   14DIO     C9  740   3.211   6.955   7.943
   14DIO    C10  741   3.138   6.867   8.032
   14DIO    C11  742   3.211   6.777   8.120
   14DIO    C12  743   3.355   6.786   8.128
   14DIO     F4  744   3.420   6.705   8.214
   14DIO     O1  745   3.006   6.843   8.000
   14DIO    C13  746   2.911   6.823   8.101
   14DIO     O2  747   2.911   6.849   8.224
   14DIO    C14  748   2.782   6.777   8.048
   14DIO    C15  749   2.716   6.845   7.934
   14DIO     F5  750   2.779   6.946   7.870
   14DIO    C16  751   2.585   6.806   7.885
   14DIO    C17  752   2.509   6.701   7.952
   14DIO    C18  753   2.578   6.621   8.053
   14DIO    C19  754   2.710   6.660   8.101
   14DIO     F6  755   2.772   6.574   8.184
   14DIO    C20  756   2.369   6.666   7.910
   14DIO     O3  757   2.299   6.775   7.848
   14DIO    C21  758   2.255   6.873   7.941
   14DIO    C22  759   2.166   6.810   8.048
   14DIO    C23  760   2.247   6.697   8.112
   14DIO     O4  761   2.291   6.605   8.013
   14DIO    C24  762   2.034   6.755   7.992
   14DIO    C25  763   1.943   6.857   7.922
   14DIO    C26  764   1.905   6.975   8.010
   14DIO     H1  765   3.625   6.676   8.037
   14DIO     H2  766   3.584   7.113   8.094
   14DIO     H3  767   3.407   7.035   7.887
   14DIO     H4  768   3.156   7.011   7.868
   14DIO     H5  769   3.156   6.707   8.182
   14DIO     H6  770   2.547   6.854   7.796
   14DIO     H7  771   2.535   6.529   8.091
   14DIO     H8  772   2.378   6.590   7.831
   14DIO     H9  773   2.342   6.922   7.987
   14DIO    H10  774   2.203   6.951   7.886
   14DIO    H11  775   2.144   6.885   8.125
   14DIO    H12  776   2.186   6.642   8.184
   14DIO    H13  777   2.333   6.737   8.167
   14DIO    H14  778   2.054   6.673   7.921
   14DIO    H15  779   1.977   6.710   8.075
   14DIO    H16  780   1.990   6.893   7.830
   14DIO    H17  781   1.851   6.805   7.891
   14DIO    H18  782   1.861   6.942   8.104
   14DIO    H19  783   1.991   7.038   8.032
   14DIO    H20  784   1.831   7.037   7.958
   15DIO     F1  785   7.839   2.481   0.742
   15DIO     C1  786   7.762   2.421   0.650
   15DIO     C2  787   7.618   2.422   0.667
   15DIO     C3  788   7.529   2.355   0.569
   15DIO     C4  789   7.594   2.291   0.453
   15DIO     C5  790   7.739   2.291   0.438
   15DIO     F2  791   7.794   2.235   0.329
   15DIO     C6  792   7.822   2.357   0.536
   15DIO     F3  793   7.956   2.356   0.522
   15DIO     C7  794   7.382   2.354   0.585
   15DIO     C8  795   7.305   2.228   0.575
   15DIO     C9  796   7.161   2.227   0.591
   15DIO    C10  797   7.088   2.351   0.606
   15DIO    C11  798   7.160   2.476   0.623
   15DIO    C12  799   7.305   2.477   0.610
   15DIO     F4  800   7.369   2.594   0.621
   15DIO     O1  801   6.956   2.341   0.643
   15DIO    C13  802   6.861   2.432   0.598
   15DIO     O2  803   6.860   2.514   0.502
   15DIO    C14  804   6.732   2.419   0.666
   15DIO    C15  805   6.666   2.288   0.682
   15DIO     F5  806   6.728   2.175   0.643
   15DIO    C16  807   6.535   2.273   0.743
   15DIO    C17  808   6.459   2.390   0.785
   15DIO    C18  809   6.528   2.519   0.786
   15DIO    C19  810   6.660   2.533   0.726
   15DIO     F6  811   6.722   2.652   0.744
   15DIO    C20  812   6.319   2.378   0.839
   15DIO     O3  813   6.249   2.262   0.791
   15DIO    C21  814   6.205   2.276   0.656
   15DIO    C22  815   6.116   2.399   0.640
   15DIO    C23  816   6.197   2.519   0.690
   15DIO     O4  817   6.241   2.497   0.824
   15DIO    C24  818   5.983   2.388   0.718
   15DIO    C25  819   5.893   2.271   0.681
   15DIO    C26  820   5.854   2.267   0.534
   15DIO     H1  821   7.575   2.472   0.753
   15DIO     H2  822   7.534   2.249   0.373
   15DIO     H3  823   7.357   2.134   0.562
   15DIO     H4  824   7.105   2.134   0.592
   15DIO     H5  825   7.106   2.568   0.639
   15DIO     H6  826   6.497   2.173   0.760
   15DIO     H7  827   6.485   2.605   0.836
   15DIO     H8  828   6.328   2.363   0.947
   15DIO     H9  829   6.292   2.282   0.590
   15DIO    H10  830   6.152   2.184   0.629
   15DIO    H11  831   6.094   2.414   0.534
   15DIO    H12  832   6.136   2.609   0.689
   15DIO    H13  833   6.283   2.538   0.625
   15DIO    H14  834   6.003   2.382   0.826
   15DIO    H15  835   5.927   2.481   0.703
   15DIO    H16  836   5.940   2.176   0.708
   15DIO    H17  837   5.801   2.278   0.741
   15DIO    H18  838   5.810   2.362   0.502
   15DIO    H19  839   5.941   2.246   0.470
   15DIO    H20  840   5.781   2.188   0.516
   16DIO     F1  841   8.574   2.381   8.480
   16DIO     C1  842   8.496   2.491   8.479
   16DIO     C2  843   8.352   2.477   8.471
   16DIO     C3  844   8.264   2.595   8.467
   16DIO     C4  845   8.329   2.728   8.475
   16DIO     C5  846   8.473   2.740   8.483
   16DIO     F2  847   8.529   2.862   8.494
   16DIO     C6  848   8.557   2.622   8.486
   16DIO     F3  849   8.691   2.635   8.493
   16DIO     C7  850   8.117   2.582   8.457
   16DIO     C8  851   8.040   2.658   8.356
   16DIO     C9  852   7.895   2.646   8.347
   16DIO    C10  853   7.823   2.566   8.444
   16DIO    C11  854   7.895   2.485   8.540
   16DIO    C12  855   8.039   2.495   8.548
   16DIO     F4  856   8.104   2.423   8.641
   16DIO     O1  857   7.691   2.540   8.415
   16DIO    C13  858   7.596   2.529   8.517
   16DIO     O2  859   7.595   2.567   8.637
   16DIO    C14  860   7.467   2.479   8.469
   16DIO    C15  861   7.401   2.536   8.349
   16DIO     F5  862   7.463   2.629   8.275
   16DIO    C16  863   7.270   2.492   8.304
   16DIO    C17  864   7.194   2.393   8.381
   16DIO    C18  865   7.263   2.324   8.489
   16DIO    C19  866   7.394   2.367   8.533
   16DIO     F6  867   7.457   2.289   8.624
   16DIO    C20  868   7.053   2.355   8.342
   16DIO     O3  869   6.984   2.457   8.269
   16DIO    C21  870   6.940   2.564   8.353
   16DIO    C22  871   6.851   2.512   8.466
   16DIO    C23  872   6.932   2.405   8.540
   16DIO     O4  873   6.976   2.304   8.450
   16DIO    C24  874   6.718   2.451   8.415
   16DIO    C25  875   6.628   2.546   8.336
   16DIO    C26  876   6.589   2.672   8.412
   16DIO     H1  877   8.310   2.377   8.467
   16DIO     H2  878   8.268   2.817   8.482
   16DIO     H3  879   8.092   2.719   8.284
   16DIO     H4  880   7.840   2.694   8.267
   16DIO     H5  881   7.841   2.422   8.609
   16DIO     H6  882   7.232   2.531   8.211
   16DIO     H7  883   7.220   2.236   8.535
   16DIO     H8  884   7.063   2.272   8.271
   16DIO     H9  885   7.027   2.617   8.394
   16DIO    H10  886   6.887   2.636   8.291
   16DIO    H11  887   6.829   2.593   8.535
   16DIO    H12  888   6.871   2.357   8.617
   16DIO    H13  889   7.018   2.450   8.591
   16DIO    H14  890   6.738   2.363   8.352
   16DIO    H15  891   6.662   2.414   8.502
   16DIO    H16  892   6.675   2.573   8.241
   16DIO    H17  893   6.536   2.492   8.310
   16DIO    H18  894   6.545   2.648   8.509
   16DIO    H19  895   6.676   2.737   8.428
   16DIO    H20  896   6.516   2.729   8.354
   17DIO     F1  897   3.865   5.311   5.470
   17DIO     C1  898   3.787   5.402   5.532
   17DIO     C2  899   3.643   5.395   5.517
   17DIO     C3  900   3.554   5.494   5.582
   17DIO     C4  901   3.620   5.598   5.664
   17DIO     C5  902   3.764   5.603   5.678
   17DIO     F2  903   3.819   5.697   5.757
   17DIO     C6  904   3.848   5.505   5.613
   17DIO     F3  905   3.981   5.512   5.625
   17DIO     C7  906   3.408   5.489   5.566
   17DIO     C8  907   3.331   5.609   5.527
   17DIO     C9  908   3.186   5.604   5.512
   17DIO    C10  909   3.113   5.483   5.546
   17DIO    C11  910   3.186   5.362   5.578
   17DIO    C12  911   3.330   5.366   5.590
   17DIO     F4  912   3.395   5.253   5.625
   17DIO     O1  913   2.981   5.479   5.508
   17DIO    C13  914   2.887   5.412   5.585
   17DIO     O2  915   2.886   5.373   5.705
   17DIO    C14  916   2.757   5.398   5.517
   17DIO    C15  917   2.691   5.513   5.451
   17DIO     F5  918   2.754   5.632   5.445
   17DIO    C16  919   2.560   5.503   5.389
   17DIO    C17  920   2.485   5.378   5.395
   17DIO    C18  921   2.553   5.259   5.444
   17DIO    C19  922   2.685   5.269   5.505
   17DIO     F6  923   2.747   5.153   5.534
   17DIO    C20  924   2.344   5.369   5.341
   17DIO     O3  925   2.274   5.494   5.341
   17DIO    C21  926   2.230   5.533   5.471
   17DIO    C22  927   2.142   5.426   5.533
   17DIO    C23  928   2.222   5.296   5.533
   17DIO     O4  929   2.267   5.265   5.401
   17DIO    C24  930   2.009   5.406   5.457
   17DIO    C25  931   1.918   5.529   5.446
   17DIO    C26  932   1.880   5.589   5.581
   17DIO     H1  933   3.600   5.315   5.457
   17DIO     H2  934   3.559   5.667   5.722
   17DIO     H3  935   3.382   5.701   5.503
   17DIO     H4  936   3.131   5.690   5.475
   17DIO     H5  937   3.131   5.270   5.598
   17DIO     H6  938   2.522   5.589   5.335
   17DIO     H7  939   2.510   5.161   5.431
   17DIO     H8  940   2.354   5.342   5.236
   17DIO     H9  941   2.317   5.553   5.535
   17DIO    H10  942   2.178   5.629   5.461
   17DIO    H11  943   2.119   5.453   5.637
   17DIO    H12  944   2.161   5.213   5.568
   17DIO    H13  945   2.308   5.304   5.600
   17DIO    H14  946   2.029   5.370   5.355
   17DIO    H15  947   1.952   5.326   5.506
   17DIO    H16  948   1.965   5.606   5.384
   17DIO    H17  949   1.826   5.499   5.394
   17DIO    H18  950   1.836   5.513   5.646
   17DIO    H19  951   1.966   5.632   5.631
   17DIO    H20  952   1.806   5.668   5.566
   18DIO     F1  953   8.560   5.465   0.187
   18DIO     C1  954   8.482   5.539   0.106
   18DIO     C2  955   8.338   5.523   0.111
   18DIO     C3  956   8.249   5.602   0.023
   18DIO     C4  957   8.315   5.699  -0.068
   18DIO     C5  958   8.459   5.713  -0.071
   18DIO     F2  959   8.515   5.805  -0.152
   18DIO     C6  960   8.543   5.634   0.016
   18DIO     F3  961   8.677   5.648   0.012
   18DIO     C7  962   8.103   5.586   0.025
   18DIO     C8  963   8.026   5.565  -0.099
   18DIO     C9  964   7.881   5.550  -0.097
   18DIO    C10  965   7.809   5.566   0.028
   18DIO    C11  966   7.881   5.579   0.153
   18DIO    C12  967   8.025   5.592   0.151
   18DIO     F4  968   8.090   5.610   0.268
   18DIO     O1  969   7.676   5.526   0.027
   18DIO    C13  970   7.582   5.593   0.105
   18DIO     O2  971   7.581   5.706   0.160
   18DIO    C14  972   7.453   5.523   0.108
   18DIO    C15  973   7.387   5.476  -0.015
   18DIO     F5  974   7.449   5.487  -0.134
   18DIO    C16  975   7.256   5.413  -0.014
   18DIO    C17  976   7.180   5.401   0.110
   18DIO    C18  977   7.249   5.431   0.234
   18DIO    C19  978   7.380   5.493   0.234
   18DIO     F6  979   7.443   5.505   0.353
   18DIO    C20  980   7.039   5.346   0.110
   18DIO     O3  981   6.970   5.364  -0.013
   18DIO    C21  982   6.926   5.498  -0.033
   18DIO    C22  983   6.837   5.544   0.082
   18DIO    C23  984   6.918   5.524   0.211
   18DIO     O4  985   6.962   5.389   0.223
   18DIO    C24  986   6.704   5.465   0.091
   18DIO    C25  987   6.614   5.473  -0.032
   18DIO    C26  988   6.575   5.615  -0.071
   18DIO     H1  989   8.296   5.452   0.181
   18DIO     H2  990   8.254   5.766  -0.128
   18DIO     H3  991   8.077   5.555  -0.194
   18DIO     H4  992   7.826   5.525  -0.187
   18DIO     H5  993   7.827   5.586   0.246
   18DIO     H6  994   7.218   5.372  -0.107
   18DIO     H7  995   7.206   5.404   0.330
   18DIO     H8  996   7.049   5.237   0.122
   18DIO     H9  997   7.013   5.564  -0.043
   18DIO    H10  998   6.873   5.502  -0.128
   18DIO    H11  999   6.814   5.650   0.071
   18DIO    H12 1000   6.857   5.547   0.299
   18DIO    H13 1001   7.004   5.592   0.213
   18DIO    H14 1002   6.724   5.359   0.112
   18DIO    H15 1003   6.648   5.503   0.178
   18DIO    H16 1004   6.661   5.423  -0.117
   18DIO    H17 1005   6.522   5.417  -0.011
   18DIO    H18 1006   6.531   5.669   0.013
   18DIO    H19 1007   6.662   5.671  -0.107
   18DIO    H20 1008   6.501   5.612  -0.152
   19DIO     F1 1009   4.641   6.122   7.928
   19DIO     C1 1010   4.563   6.222   7.882
   19DIO     C2 1011   4.419   6.205   7.880
   19DIO     C3 1012   4.331   6.311   7.828
   19DIO     C4 1013   4.396   6.435   7.780
   19DIO     C5 1014   4.540   6.449   7.782
   19DIO     F2 1015   4.596   6.565   7.742
   19DIO     C6 1016   4.624   6.344   7.834
   19DIO     F3 1017   4.758   6.358   7.835
   19DIO     C7 1018   4.184   6.295   7.824
   19DIO     C8 1019   4.107   6.322   7.701
   19DIO     C9 1020   3.962   6.307   7.697
   19DIO    C10 1021   3.890   6.275   7.819
   19DIO    C11 1022   3.962   6.241   7.940
   19DIO    C12 1023   4.106   6.253   7.943
   19DIO     F4 1024   4.171   6.226   8.058
   19DIO     O1 1025   3.758   6.239   7.803
   19DIO    C13 1026   3.663   6.272   7.900
   19DIO     O2 1027   3.662   6.356   7.994
   19DIO    C14 1028   3.534   6.206   7.877
   19DIO    C15 1029   3.468   6.208   7.745
   19DIO     F5 1030   3.530   6.263   7.639
   19DIO    C16 1031   3.337   6.150   7.722
   19DIO    C17 1032   3.261   6.092   7.833
   19DIO    C18 1033   3.330   6.073   7.960
   19DIO    C19 1034   3.461   6.131   7.982
   19DIO     F6 1035   3.524   6.097   8.097
   19DIO    C20 1036   3.120   6.041   7.813
   19DIO     O3 1037   3.051   6.104   7.705
   19DIO    C21 1038   3.007   6.235   7.737
   19DIO    C22 1039   2.918   6.235   7.861
   19DIO    C23 1040   2.999   6.169   7.973
   19DIO     O4 1041   3.043   6.039   7.934
   19DIO    C24 1042   2.785   6.159   7.840
   19DIO    C25 1043   2.695   6.212   7.729
   19DIO    C26 1044   2.656   6.358   7.746
   19DIO     H1 1045   4.377   6.113   7.918
   19DIO     H2 1046   4.335   6.520   7.749
   19DIO     H3 1047   4.159   6.348   7.609
   19DIO     H4 1048   3.907   6.319   7.605
   19DIO     H5 1049   3.908   6.212   8.029
   19DIO     H6 1050   3.299   6.147   7.621
   19DIO     H7 1051   3.287   6.012   8.038
   19DIO     H8 1052   3.130   5.936   7.783
   19DIO     H9 1053   3.094   6.301   7.753
   19DIO    H10 1054   2.954   6.276   7.650
   19DIO    H11 1055   2.896   6.338   7.891
   19DIO    H12 1056   2.938   6.157   8.063
   19DIO    H13 1057   3.085   6.230   8.001
   19DIO    H14 1058   2.805   6.053   7.819
   19DIO    H15 1059   2.729   6.161   7.934
   19DIO    H16 1060   2.742   6.198   7.631
   19DIO    H17 1061   2.603   6.152   7.727
   19DIO    H18 1062   2.612   6.376   7.844
   19DIO    H19 1063   2.743   6.424   7.733
   19DIO    H20 1064   2.583   6.386   7.670
   20DIO     F1 1065   8.049   6.021   4.436
   20DIO     C1 1066   7.972   6.051   4.330
   20DIO     C2 1067   7.827   6.039   4.342
   20DIO     C3 1068   7.739   6.069   4.227
   20DIO     C4 1069   7.804   6.114   4.102
   20DIO     C5 1070   7.948   6.125   4.093
   20DIO     F2 1071   8.004   6.170   3.979
   20DIO     C6 1072   8.032   6.095   4.207
   20DIO     F3 1073   8.166   6.105   4.197
   20DIO     C7 1074   7.592   6.056   4.237
   20DIO     C8 1075   7.515   5.980   4.136
   20DIO     C9 1076   7.370   5.968   4.145
   20DIO    C10 1077   7.298   6.039   4.249
   20DIO    C11 1078   7.370   6.108   4.354
   20DIO    C12 1079   7.514   6.118   4.346
   20DIO     F4 1080   7.579   6.187   4.442
   20DIO     O1 1081   7.166   6.003   4.266
   20DIO    C13 1082   7.071   6.098   4.304
   20DIO     O2 1083   7.070   6.224   4.302
   20DIO    C14 1084   6.942   6.038   4.339
   20DIO    C15 1085   6.876   5.939   4.251
   20DIO     F5 1086   6.938   5.895   4.140
   20DIO    C16 1087   6.745   5.883   4.280
   20DIO    C17 1088   6.669   5.929   4.396
   20DIO    C18 1089   6.738   6.013   4.494
   20DIO    C19 1090   6.870   6.068   4.465
   20DIO     F6 1091   6.932   6.133   4.565
   20DIO    C20 1092   6.528   5.881   4.422
   20DIO     O3 1093   6.459   5.840   4.304
   20DIO    C21 1094   6.415   5.951   4.225
   20DIO    C22 1095   6.326   6.044   4.307
   20DIO    C23 1096   6.407   6.085   4.430
   20DIO     O4 1097   6.451   5.971   4.502
   20DIO    C24 1098   6.193   5.978   4.351
   20DIO    C25 1099   6.103   5.929   4.237
   20DIO    C26 1100   6.064   6.037   4.138
   20DIO     H1 1101   7.785   6.007   4.437
   20DIO     H2 1102   7.744   6.146   4.018
   20DIO     H3 1103   7.567   5.928   4.056
   20DIO     H4 1104   7.315   5.905   4.076
   20DIO     H5 1105   7.316   6.156   4.434
   20DIO     H6 1106   6.707   5.805   4.216
   20DIO     H7 1107   6.695   6.032   4.591
   20DIO     H8 1108   6.538   5.789   4.482
   20DIO     H9 1109   6.502   6.005   4.186
   20DIO    H10 1110   6.362   5.911   4.138
   20DIO    H11 1111   6.304   6.134   4.248
   20DIO    H12 1112   6.346   6.146   4.498
   20DIO    H13 1113   6.493   6.147   4.402
   20DIO    H14 1114   6.213   5.893   4.417
   20DIO    H15 1115   6.137   6.051   4.411
   20DIO    H16 1116   6.150   5.846   4.184
   20DIO    H17 1117   6.011   5.889   4.282
   20DIO    H18 1118   6.020   6.124   4.189
   20DIO    H19 1119   6.151   6.071   4.080
   20DIO    H20 1120   5.991   5.999   4.067
   21DIO     F1 1121   1.960  -0.786   1.786
   21DIO     C1 1122   1.882  -0.826   1.889
   21DIO     C2 1123   1.738  -0.813   1.878
   21DIO     C3 1124   1.649  -0.854   1.990
   21DIO     C4 1125   1.715  -0.911   2.110
   21DIO     C5 1126   1.859  -0.923   2.118
   21DIO     F2 1127   1.915  -0.979   2.227
   21DIO     C6 1128   1.943  -0.881   2.008
   21DIO     F3 1129   2.077  -0.892   2.017
   21DIO     C7 1130   1.503  -0.840   1.981
   21DIO     C8 1131   1.426  -0.774   2.089
   21DIO     C9 1132   1.281  -0.761   2.082
   21DIO    C10 1133   1.209  -0.822   1.971
   21DIO    C11 1134   1.281  -0.880   1.860
   21DIO    C12 1135   1.425  -0.891   1.867
   21DIO     F4 1136   1.490  -0.950   1.764
   21DIO     O1 1137   1.076  -0.785   1.958
   21DIO    C13 1138   0.982  -0.875   1.910
   21DIO     O2 1139   0.981  -1.001   1.900
   21DIO    C14 1140   0.853  -0.812   1.881
   21DIO    C15 1141   0.786  -0.722   1.979
   21DIO     F5 1142   0.849  -0.689   2.093
   21DIO    C16 1143   0.656  -0.664   1.955
   21DIO    C17 1144   0.580  -0.698   1.835
   21DIO    C18 1145   0.649  -0.772   1.730
   21DIO    C19 1146   0.780  -0.829   1.753
   21DIO     F6 1147   0.843  -0.884   1.647
   21DIO    C20 1148   0.439  -0.647   1.814
   21DIO     O3 1149   0.369  -0.619   1.936
   21DIO    C21 1150   0.326  -0.736   2.003
   21DIO    C22 1151   0.237  -0.821   1.913
   21DIO    C23 1152   0.318  -0.850   1.786
   21DIO     O4 1153   0.362  -0.729   1.726
   21DIO    C24 1154   0.104  -0.751   1.876
   21DIO    C25 1155   0.013  -0.714   1.993
   21DIO    C26 1156  -0.025  -0.831   2.082
   21DIO     H1 1157   1.696  -0.772   1.788
   21DIO     H2 1158   1.654  -0.951   2.190
   21DIO     H3 1159   1.477  -0.730   2.174
   21DIO     H4 1160   1.226  -0.706   2.156
   21DIO     H5 1161   1.227  -0.920   1.775
   21DIO     H6 1162   0.618  -0.592   2.027
   21DIO     H7 1163   0.606  -0.781   1.631
   21DIO     H8 1164   0.449  -0.550   1.764
   21DIO     H9 1165   0.412  -0.794   2.037
   21DIO    H10 1166   0.273  -0.706   2.094
   21DIO    H11 1167   0.214  -0.916   1.962
   21DIO    H12 1168   0.257  -0.903   1.713
   21DIO    H13 1169   0.404  -0.914   1.808
   21DIO    H14 1170   0.124  -0.660   1.818
   21DIO    H15 1171   0.048  -0.818   1.809
   21DIO    H16 1172   0.061  -0.636   2.054
   21DIO    H17 1173  -0.078  -0.669   1.953
   21DIO    H18 1174  -0.069  -0.912   2.023
   21DIO    H19 1175   0.062  -0.871   2.136
   21DIO    H20 1176  -0.099  -0.800   2.156
   22DIO     F1 1177   9.331   1.846   3.020
   22DIO     C1 1178   9.253   1.954   3.041
   22DIO     C2 1179   9.109   1.941   3.029
   22DIO     C3 1180   9.020   2.058   3.050
   22DIO     C4 1181   9.086   2.186   3.084
   22DIO     C5 1182   9.230   2.196   3.095
   22DIO     F2 1183   9.285   2.314   3.130
   22DIO     C6 1184   9.314   2.080   3.074
   22DIO     F3 1185   9.448   2.091   3.083
   22DIO     C7 1186   8.874   2.047   3.038
   22DIO     C8 1187   8.797   2.142   2.954
   22DIO     C9 1188   8.652   2.132   2.942
   22DIO    C10 1189   8.579   2.034   3.021
   22DIO    C11 1190   8.652   1.935   3.099
   22DIO    C12 1191   8.796   1.943   3.108
   22DIO     F4 1192   8.861   1.854   3.185
   22DIO     O1 1193   8.447   2.014   2.988
   22DIO    C13 1194   8.353   1.983   3.085
   22DIO     O2 1195   8.352   1.996   3.210
   22DIO    C14 1196   8.224   1.944   3.028
   22DIO    C15 1197   8.157   2.023   2.922
   22DIO     F5 1198   8.220   2.130   2.869
   22DIO    C16 1199   8.027   1.989   2.869
   22DIO    C17 1200   7.951   1.878   2.925
   22DIO    C18 1201   8.020   1.788   3.016
   22DIO    C19 1202   8.151   1.821   3.068
   22DIO     F6 1203   8.214   1.726   3.141
   22DIO    C20 1204   7.810   1.848   2.878
   22DIO     O3 1205   7.740   1.963   2.828
   22DIO    C21 1206   7.697   2.050   2.932
   22DIO    C22 1207   7.608   1.976   3.032
   22DIO    C23 1208   7.689   1.857   3.083
   22DIO     O4 1209   7.733   1.776   2.975
   22DIO    C24 1210   7.475   1.927   2.970
   22DIO    C25 1211   7.384   2.036   2.911
   22DIO    C26 1212   7.346   2.144   3.011
   22DIO     H1 1213   9.066   1.844   3.006
   22DIO     H2 1214   9.025   2.272   3.110
   22DIO     H3 1215   8.848   2.217   2.895
   22DIO     H4 1216   8.597   2.195   2.874
   22DIO     H5 1217   8.598   1.859   3.154
   22DIO     H6 1218   7.988   2.047   2.786
   22DIO     H7 1219   7.977   1.692   3.043
   22DIO     H8 1220   7.820   1.781   2.792
   22DIO     H9 1221   7.783   2.094   2.983
   22DIO    H10 1222   7.644   2.134   2.885
   22DIO    H11 1223   7.585   2.042   3.116
   22DIO    H12 1224   7.627   1.794   3.149
   22DIO    H13 1225   7.775   1.891   3.142
   22DIO    H14 1226   7.495   1.854   2.891
   22DIO    H15 1227   7.419   1.874   3.047
   22DIO    H16 1228   7.432   2.082   2.824
   22DIO    H17 1229   7.293   1.988   2.875
   22DIO    H18 1230   7.302   2.101   3.101
   22DIO    H19 1231   7.432   2.205   3.040
   22DIO    H20 1232   7.272   2.212   2.966
   23DIO     F1 1233   3.349   5.295   4.975
   23DIO     C1 1234   3.272   5.230   4.886
   23DIO     C2 1235   3.128   5.231   4.903
   23DIO     C3 1236   3.039   5.159   4.809
   23DIO     C4 1237   3.104   5.088   4.697
   23DIO     C5 1238   3.249   5.088   4.682
   23DIO     F2 1239   3.304   5.026   4.577
   23DIO     C6 1240   3.332   5.159   4.776
   23DIO     F3 1241   3.466   5.157   4.762
   23DIO     C7 1242   2.892   5.159   4.825
   23DIO     C8 1243   2.815   5.033   4.823
   23DIO     C9 1244   2.671   5.032   4.838
   23DIO    C10 1245   2.598   5.157   4.846
   23DIO    C11 1246   2.670   5.283   4.856
   23DIO    C12 1247   2.815   5.283   4.843
   23DIO     F4 1248   2.879   5.401   4.848
   23DIO     O1 1249   2.466   5.149   4.884
   23DIO    C13 1250   2.371   5.238   4.833
   23DIO     O2 1251   2.370   5.314   4.733
   23DIO    C14 1252   2.242   5.228   4.903
   23DIO    C15 1253   2.176   5.098   4.926
   23DIO     F5 1254   2.238   4.983   4.893
   23DIO    C16 1255   2.045   5.087   4.988
   23DIO    C17 1256   1.969   5.207   5.023
   23DIO    C18 1257   2.038   5.335   5.017
   23DIO    C19 1258   2.170   5.346   4.956
   23DIO     F6 1259   2.232   5.465   4.966
   23DIO    C20 1260   1.829   5.197   5.077
   23DIO     O3 1261   1.759   5.079   5.036
   23DIO    C21 1262   1.715   5.085   4.901
   23DIO    C22 1263   1.626   5.207   4.878
   23DIO    C23 1264   1.707   5.329   4.921
   23DIO     O4 1265   1.751   5.316   5.056
   23DIO    C24 1266   1.493   5.201   4.956
   23DIO    C25 1267   1.403   5.081   4.926
   23DIO    C26 1268   1.364   5.069   4.779
   23DIO     H1 1269   3.085   5.286   4.986
   23DIO     H2 1270   3.044   5.042   4.620
   23DIO     H3 1271   2.867   4.938   4.815
   23DIO     H4 1272   2.615   4.939   4.845
   23DIO     H5 1273   2.616   5.376   4.867
   23DIO     H6 1274   2.007   4.988   5.011
   23DIO     H7 1275   1.995   5.424   5.062
   23DIO     H8 1276   1.838   5.189   5.186
   23DIO     H9 1277   1.802   5.088   4.834
   23DIO    H10 1278   1.662   4.992   4.879
   23DIO    H11 1279   1.604   5.216   4.771
   23DIO    H12 1280   1.646   5.420   4.915
   23DIO    H13 1281   1.793   5.345   4.855
   23DIO    H14 1282   1.513   5.201   5.064
   23DIO    H15 1283   1.437   5.293   4.936
   23DIO    H16 1284   1.450   4.988   4.959
   23DIO    H17 1285   1.311   5.092   4.985
   23DIO    H18 1286   1.320   5.163   4.742
   23DIO    H19 1287   1.451   5.045   4.717
   23DIO    H20 1288   1.291   4.990   4.766
   24DIO     F1 1289   2.200  10.714  -0.154
   24DIO     C1 1290   2.123  10.728  -0.045
   24DIO     C2 1291   1.978  10.735  -0.061
   24DIO     C3 1292   1.890  10.753   0.056
   24DIO     C4 1293   1.955  10.761   0.189
   24DIO     C5 1294   2.099  10.754   0.202
   24DIO     F2 1295   2.155  10.758   0.325
   24DIO     C6 1296   2.183  10.737   0.085
   24DIO     F3 1297   2.317  10.732   0.099
   24DIO     C7 1298   1.743  10.761   0.042
   24DIO     C8 1299   1.666  10.870   0.105
   24DIO     C9 1300   1.521  10.878   0.092
   24DIO    C10 1301   1.449  10.772   0.025
   24DIO    C11 1302   1.521  10.667  -0.044
   24DIO    C12 1303   1.665  10.661  -0.033
   24DIO     F4 1304   1.730  10.559  -0.094
   24DIO     O1 1305   1.317  10.798  -0.005
   24DIO    C13 1306   1.222  10.695  -0.003
   24DIO     O2 1307   1.221  10.580   0.049
   24DIO    C14 1308   1.093  10.737  -0.059
   24DIO    C15 1309   1.027  10.862  -0.017
   24DIO     F5 1310   1.089  10.947   0.068
   24DIO    C16 1311   0.896  10.902  -0.066
   24DIO    C17 1312   0.820  10.814  -0.154
   24DIO    C18 1313   0.889  10.698  -0.210
   24DIO    C19 1314   1.021  10.660  -0.162
   24DIO     F6 1315   1.083  10.560  -0.229
   24DIO    C20 1316   0.679  10.848  -0.197
   24DIO     O3 1317   0.610  10.932  -0.104
   24DIO    C21 1318   0.566  10.862   0.012
   24DIO    C22 1319   0.477  10.744  -0.027
   24DIO    C23 1320   0.558  10.657  -0.124
   24DIO     O4 1321   0.602  10.734  -0.235
   24DIO    C24 1322   0.344  10.787  -0.093
   24DIO    C25 1323   0.254  10.877  -0.008
   24DIO    C26 1324   0.215  10.817   0.126
   24DIO     H1 1325   1.936  10.726  -0.160
   24DIO     H2 1326   1.895  10.764   0.279
   24DIO     H3 1327   1.718  10.949   0.158
   24DIO     H4 1328   1.466  10.962   0.131
   24DIO     H5 1329   1.467  10.591  -0.099
   24DIO     H6 1330   0.858  10.999  -0.038
   24DIO     H7 1331   0.846  10.642  -0.292
   24DIO     H8 1332   0.689  10.909  -0.288
   24DIO     H9 1333   0.653  10.827   0.069
   24DIO    H10 1334   0.513  10.932   0.076
   24DIO    H11 1335   0.455  10.685   0.063
   24DIO    H12 1336   0.497  10.575  -0.162
   24DIO    H13 1337   0.644  10.612  -0.073
   24DIO    H14 1338   0.364  10.839  -0.188
   24DIO    H15 1339   0.288  10.697  -0.119
   24DIO    H16 1340   0.301  10.974   0.008
   24DIO    H17 1341   0.162  10.896  -0.065
   24DIO    H18 1342   0.171  10.717   0.114
   24DIO    H19 1343   0.302  10.808   0.192
   24DIO    H20 1344   0.142  10.880   0.176
   25DIO     F1 1345   1.710   7.358   9.944
   25DIO     C1 1346   1.633   7.454   9.890
   25DIO     C2 1347   1.489   7.437   9.890
   25DIO     C3 1348   1.400   7.539   9.829
   25DIO     C4 1349   1.465   7.659   9.772
   25DIO     C5 1350   1.610   7.673   9.774
   25DIO     F2 1351   1.665   7.786   9.724
   25DIO     C6 1352   1.693   7.572   9.833
   25DIO     F3 1353   1.827   7.586   9.833
   25DIO     C7 1354   1.253   7.523   9.827
   25DIO     C8 1355   1.176   7.540   9.702
   25DIO     C9 1356   1.032   7.525   9.700
   25DIO    C10 1357   0.959   7.503   9.823
   25DIO    C11 1358   1.032   7.478   9.947
   25DIO    C12 1359   1.176   7.490   9.948
   25DIO     F4 1360   1.241   7.472  10.065
   25DIO     O1 1361   0.827   7.466   9.811
   25DIO    C13 1362   0.732   7.506   9.905
   25DIO     O2 1363   0.731   7.596   9.992
   25DIO    C14 1364   0.603   7.438   9.887
   25DIO    C15 1365   0.537   7.430   9.755
   25DIO     F5 1366   0.600   7.477   9.645
   25DIO    C16 1367   0.406   7.370   9.737
   25DIO    C17 1368   0.330   7.321   9.851
   25DIO    C18 1369   0.399   7.312   9.980
   25DIO    C19 1370   0.531   7.371   9.997
   25DIO     F6 1371   0.593   7.347  10.115
   25DIO    C20 1372   0.190   7.268   9.835
   25DIO     O3 1373   0.120   7.323   9.723
   25DIO    C21 1374   0.076   7.457   9.745
   25DIO    C22 1375  -0.013   7.465   9.869
   25DIO    C23 1376   0.068   7.408   9.985
   25DIO     O4 1377   0.112   7.276   9.956
   25DIO    C24 1378  -0.145   7.388   9.853
   25DIO    C25 1379  -0.236   7.433   9.738
   25DIO    C26 1380  -0.275   7.580   9.744
   25DIO     H1 1381   1.446   7.348   9.935
   25DIO     H2 1382   1.405   7.741   9.735
   25DIO     H3 1383   1.228   7.559   9.609
   25DIO     H4 1384   0.977   7.530   9.607
   25DIO     H5 1385   0.977   7.456  10.038
   25DIO     H6 1386   0.368   7.359   9.636
   25DIO     H7 1387   0.356   7.257  10.062
   25DIO     H8 1388   0.199   7.161   9.814
   25DIO     H9 1389   0.163   7.523   9.755
   25DIO    H10 1390   0.023   7.490   9.655
   25DIO    H11 1391  -0.035   7.570   9.890
   25DIO    H12 1392   0.007   7.403  10.076
   25DIO    H13 1393   0.154   7.472  10.008
   25DIO    H14 1394  -0.126   7.281   9.841
   25DIO    H15 1395  -0.202   7.398   9.947
   25DIO    H16 1396  -0.189   7.411   9.642
   25DIO    H17 1397  -0.328   7.372   9.742
   25DIO    H18 1398  -0.318   7.605   9.841
   25DIO    H19 1399  -0.188   7.644   9.727
   25DIO    H20 1400  -0.348   7.602   9.666
   26DIO     F1 1401   6.369   9.576  -0.779
   26DIO     C1 1402   6.291   9.680  -0.815
   26DIO     C2 1403   6.147   9.664  -0.818
   26DIO     C3 1404   6.058   9.775  -0.859
   26DIO     C4 1405   6.124   9.904  -0.893
   26DIO     C5 1406   6.268   9.917  -0.889
   26DIO     F2 1407   6.323  10.037  -0.916
   26DIO     C6 1408   6.352   9.807  -0.849
   26DIO     F3 1409   6.485   9.821  -0.847
   26DIO     C7 1410   5.912   9.760  -0.864
   26DIO     C8 1411   5.835   9.800  -0.984
   26DIO     C9 1412   5.690   9.786  -0.989
   26DIO    C10 1413   5.617   9.741  -0.872
   26DIO    C11 1414   5.690   9.693  -0.755
   26DIO    C12 1415   5.834   9.705  -0.751
   26DIO     F4 1416   5.899   9.665  -0.640
   26DIO     O1 1417   5.485   9.707  -0.891
   26DIO    C13 1418   5.391   9.728  -0.791
   26DIO     O2 1419   5.390   9.801  -0.688
   26DIO    C14 1420   5.262   9.665  -0.821
   26DIO    C15 1421   5.195   9.682  -0.952
   26DIO     F5 1422   5.258   9.748  -1.052
   26DIO    C16 1423   5.064   9.626  -0.981
   26DIO    C17 1424   4.989   9.557  -0.878
   26DIO    C18 1425   5.057   9.524  -0.753
   26DIO    C19 1426   5.189   9.579  -0.725
   26DIO     F6 1427   5.252   9.533  -0.614
   26DIO    C20 1428   4.848   9.508  -0.903
   26DIO     O3 1429   4.778   9.583  -1.004
   26DIO    C21 1430   4.735   9.710  -0.957
   26DIO    C22 1431   4.646   9.695  -0.834
   26DIO    C23 1432   4.726   9.617  -0.730
   26DIO     O4 1433   4.771   9.493  -0.784
   26DIO    C24 1434   4.513   9.622  -0.863
   26DIO    C25 1435   4.422   9.687  -0.968
   26DIO    C26 1436   4.384   9.831  -0.935
   26DIO     H1 1437   6.104   9.568  -0.791
   26DIO     H2 1438   6.063   9.991  -0.914
   26DIO     H3 1439   5.886   9.836  -1.072
   26DIO     H4 1440   5.635   9.807  -1.079
   26DIO     H5 1441   5.635   9.654  -0.670
   26DIO     H6 1442   5.026   9.634  -1.082
   26DIO     H7 1443   5.015   9.455  -0.682
   26DIO     H8 1444   4.858   9.407  -0.944
   26DIO     H9 1445   4.821   9.773  -0.935
   26DIO    H10 1446   4.682   9.759  -1.039
   26DIO    H11 1447   4.623   9.795  -0.793
   26DIO    H12 1448   4.665   9.596  -0.642
   26DIO    H13 1449   4.813   9.676  -0.696
   26DIO    H14 1450   4.533   9.519  -0.896
   26DIO    H15 1451   4.456   9.614  -0.769
   26DIO    H16 1452   4.470   9.684  -1.067
   26DIO    H17 1453   4.330   9.628  -0.976
   26DIO    H18 1454   4.340   9.838  -0.835
   26DIO    H19 1455   4.470   9.898  -0.940
   26DIO    H20 1456   4.310   9.867  -1.008
   27DIO     F1 1457   9.919   1.761   0.167
   27DIO     C1 1458   9.841   1.862   0.122
   27DIO     C2 1459   9.697   1.845   0.120
   27DIO     C3 1460   9.608   1.952   0.069
   27DIO     C4 1461   9.674   2.076   0.023
   27DIO     C5 1462   9.818   2.091   0.026
   27DIO     F2 1463   9.874   2.207  -0.013
   27DIO     C6 1464   9.902   1.984   0.076
   27DIO     F3 1465  10.036   1.998   0.077
   27DIO     C7 1466   9.462   1.936   0.066
   27DIO     C8 1467   9.385   1.965  -0.058
   27DIO     C9 1468   9.240   1.950  -0.061
   27DIO    C10 1469   9.168   1.916   0.060
   27DIO    C11 1470   9.240   1.880   0.180
   27DIO    C12 1471   9.384   1.892   0.183
   27DIO     F4 1472   9.449   1.863   0.298
   27DIO     O1 1473   9.035   1.880   0.044
   27DIO    C13 1474   8.941   1.911   0.141
   27DIO     O2 1475   8.940   1.994   0.236
   27DIO    C14 1476   8.812   1.846   0.117
   27DIO    C15 1477   8.746   1.850  -0.015
   27DIO     F5 1478   8.808   1.906  -0.120
   27DIO    C16 1479   8.615   1.792  -0.039
   27DIO    C17 1480   8.539   1.732   0.071
   27DIO    C18 1481   8.608   1.712   0.198
   27DIO    C19 1482   8.739   1.769   0.221
   27DIO     F6 1483   8.802   1.734   0.335
   27DIO    C20 1484   8.398   1.682   0.050
   27DIO     O3 1485   8.329   1.746  -0.057
   27DIO    C21 1486   8.285   1.877  -0.022
   27DIO    C22 1487   8.196   1.875   0.102
   27DIO    C23 1488   8.277   1.807   0.212
   27DIO     O4 1489   8.321   1.678   0.171
   27DIO    C24 1490   8.063   1.799   0.079
   27DIO    C25 1491   7.973   1.854  -0.031
   27DIO    C26 1492   7.934   2.000  -0.012
   27DIO     H1 1493   9.655   1.752   0.157
   27DIO     H2 1494   9.613   2.162  -0.006
   27DIO     H3 1495   9.436   1.992  -0.148
   27DIO     H4 1496   9.185   1.963  -0.153
   27DIO     H5 1497   9.186   1.850   0.269
   27DIO     H6 1498   8.577   1.790  -0.140
   27DIO     H7 1499   8.565   1.649   0.275
   27DIO     H8 1500   8.408   1.577   0.019
   27DIO     H9 1501   8.372   1.942  -0.006
   27DIO    H10 1502   8.232   1.919  -0.109
   27DIO    H11 1503   8.173   1.977   0.133
   27DIO    H12 1504   8.216   1.794   0.302
   27DIO    H13 1505   8.363   1.868   0.241
   27DIO    H14 1506   8.083   1.693   0.057
   27DIO    H15 1507   8.007   1.800   0.173
   27DIO    H16 1508   8.020   1.841  -0.129
   27DIO    H17 1509   7.881   1.794  -0.034
   27DIO    H18 1510   7.890   2.017   0.087
   27DIO    H19 1511   8.021   2.066  -0.023
   27DIO    H20 1512   7.860   2.029  -0.088
   28DIO     F1 1513   6.453   4.107   7.555
   28DIO     C1 1514   6.376   4.211   7.520
   28DIO     C2 1515   6.231   4.194   7.516
   28DIO     C3 1516   6.143   4.306   7.476
   28DIO     C4 1517   6.208   4.434   7.442
   28DIO     C5 1518   6.352   4.448   7.447
   28DIO     F2 1519   6.408   4.568   7.419
   28DIO     C6 1520   6.436   4.337   7.486
   28DIO     F3 1521   6.570   4.351   7.488
   28DIO     C7 1522   5.996   4.291   7.471
   28DIO     C8 1523   5.919   4.331   7.351
   28DIO     C9 1524   5.774   4.317   7.346
   28DIO    C10 1525   5.702   4.271   7.463
   28DIO    C11 1526   5.774   4.224   7.580
   28DIO    C12 1527   5.918   4.235   7.583
   28DIO     F4 1528   5.983   4.196   7.695
   28DIO     O1 1529   5.570   4.237   7.444
   28DIO    C13 1530   5.475   4.259   7.544
   28DIO     O2 1531   5.474   4.331   7.646
   28DIO    C14 1532   5.346   4.196   7.514
   28DIO    C15 1533   5.280   4.213   7.382
   28DIO     F5 1534   5.342   4.279   7.283
   28DIO    C16 1535   5.149   4.157   7.353
   28DIO    C17 1536   5.073   4.087   7.456
   28DIO    C18 1537   5.142   4.055   7.581
   28DIO    C19 1538   5.274   4.109   7.609
   28DIO     F6 1539   5.336   4.063   7.720
   28DIO    C20 1540   4.932   4.039   7.431
   28DIO     O3 1541   4.863   4.114   7.331
   28DIO    C21 1542   4.819   4.241   7.378
   28DIO    C22 1543   4.730   4.226   7.501
   28DIO    C23 1544   4.811   4.148   7.604
   28DIO     O4 1545   4.855   4.023   7.550
   28DIO    C24 1546   4.597   4.153   7.471
   28DIO    C25 1547   4.507   4.218   7.366
   28DIO    C26 1548   4.468   4.362   7.400
   28DIO     H1 1549   6.189   4.098   7.543
   28DIO     H2 1550   6.148   4.522   7.422
   28DIO     H3 1551   5.971   4.367   7.263
   28DIO     H4 1552   5.719   4.338   7.256
   28DIO     H5 1553   5.720   4.185   7.665
   28DIO     H6 1554   5.111   4.166   7.252
   28DIO     H7 1555   5.099   3.985   7.651
   28DIO     H8 1556   4.942   3.938   7.389
   28DIO     H9 1557   4.906   4.304   7.400
   28DIO    H10 1558   4.766   4.290   7.296
   28DIO    H11 1559   4.708   4.325   7.541
   28DIO    H12 1560   4.750   4.126   7.692
   28DIO    H13 1561   4.897   4.206   7.639
   28DIO    H14 1562   4.617   4.050   7.439
   28DIO    H15 1563   4.541   4.145   7.565
   28DIO    H16 1564   4.554   4.215   7.268
   28DIO    H17 1565   4.415   4.159   7.358
   28DIO    H18 1566   4.424   4.369   7.500
   28DIO    H19 1567   4.555   4.428   7.395
   28DIO    H20 1568   4.395   4.398   7.327
   29DIO     F1 1569   1.608   9.256   6.394
   29DIO     C1 1570   1.531   9.264   6.504
   29DIO     C2 1571   1.387   9.272   6.488
   29DIO     C3 1572   1.298   9.283   6.606
   29DIO     C4 1573   1.363   9.285   6.739
   29DIO     C5 1574   1.508   9.277   6.752
   29DIO     F2 1575   1.563   9.275   6.874
   29DIO     C6 1576   1.591   9.266   6.635
   29DIO     F3 1577   1.725   9.261   6.648
   29DIO     C7 1578   1.151   9.292   6.593
   29DIO     C8 1579   1.074   9.398   6.661
   29DIO     C9 1580   0.930   9.407   6.649
   29DIO    C10 1581   0.857   9.304   6.576
   29DIO    C11 1582   0.929   9.203   6.501
   29DIO    C12 1583   1.074   9.196   6.512
   29DIO     F4 1584   1.138   9.098   6.446
   29DIO     O1 1585   0.725   9.332   6.548
   29DIO    C13 1586   0.630   9.229   6.544
   29DIO     O2 1587   0.629   9.112   6.590
   29DIO    C14 1588   0.501   9.274   6.490
   29DIO    C15 1589   0.435   9.397   6.539
   29DIO     F5 1590   0.497   9.477   6.628
   29DIO    C16 1591   0.304   9.439   6.492
   29DIO    C17 1592   0.228   9.356   6.399
   29DIO    C18 1593   0.297   9.243   6.337
   29DIO    C19 1594   0.429   9.202   6.383
   29DIO     F6 1595   0.491   9.106   6.311
   29DIO    C20 1596   0.088   9.392   6.358
   29DIO     O3 1597   0.018   9.471   6.455
   29DIO    C21 1598  -0.026   9.395   6.567
   29DIO    C22 1599  -0.115   9.279   6.523
   29DIO    C23 1600  -0.034   9.198   6.422
   29DIO     O4 1601   0.010   9.280   6.314
   29DIO    C24 1602  -0.248   9.326   6.459
   29DIO    C25 1603  -0.338   9.411   6.548
   29DIO    C26 1604  -0.377   9.344   6.679
   29DIO     H1 1605   1.344   9.269   6.389
   29DIO     H2 1606   1.303   9.283   6.829
   29DIO     H3 1607   1.126   9.475   6.718
   29DIO     H4 1608   0.874   9.489   6.692
   29DIO     H5 1609   0.875   9.130   6.443
   29DIO     H6 1610   0.266   9.535   6.525
   29DIO     H7 1611   0.254   9.192   6.252
   29DIO     H8 1612   0.097   9.457   6.270
   29DIO     H9 1613   0.061   9.358   6.623
   29DIO    H10 1614  -0.079   9.462   6.635
   29DIO    H11 1615  -0.137   9.215   6.609
   29DIO    H12 1616  -0.095   9.118   6.379
   29DIO    H13 1617   0.052   9.150   6.470
   29DIO    H14 1618  -0.228   9.382   6.367
   29DIO    H15 1619  -0.304   9.237   6.428
   29DIO    H16 1620  -0.291   9.508   6.569
   29DIO    H17 1621  -0.430   9.433   6.492
   29DIO    H18 1622  -0.421   9.245   6.662
   29DIO    H19 1623  -0.290   9.332   6.745
   29DIO    H20 1624  -0.450   9.405   6.732
   30DIO     F1 1625   8.084   9.246   3.295
   30DIO     C1 1626   8.007   9.285   3.398
   30DIO     C2 1627   7.863   9.288   3.381
   30DIO     C3 1628   7.774   9.332   3.491
   30DIO     C4 1629   7.839   9.370   3.618
   30DIO     C5 1630   7.984   9.367   3.632
   30DIO     F2 1631   8.039   9.398   3.751
   30DIO     C6 1632   8.067   9.324   3.523
   30DIO     F3 1633   8.201   9.321   3.537
   30DIO     C7 1634   7.627   9.337   3.476
   30DIO     C8 1635   7.550   9.458   3.512
   30DIO     C9 1636   7.406   9.462   3.497
   30DIO    C10 1637   7.333   9.344   3.456
   30DIO    C11 1638   7.406   9.225   3.413
   30DIO    C12 1639   7.550   9.222   3.425
   30DIO     F4 1640   7.615   9.109   3.389
   30DIO     O1 1641   7.201   9.362   3.421
   30DIO    C13 1642   7.106   9.263   3.446
   30DIO     O2 1643   7.105   9.163   3.523
   30DIO    C14 1644   6.977   9.290   3.382
   30DIO    C15 1645   6.911   9.422   3.395
   30DIO     F5 1646   6.974   9.524   3.457
   30DIO    C16 1647   6.780   9.449   3.338
   30DIO    C17 1648   6.704   9.344   3.272
   30DIO    C18 1649   6.773   9.218   3.244
   30DIO    C19 1650   6.905   9.192   3.299
   30DIO     F6 1651   6.967   9.080   3.257
   30DIO    C20 1652   6.564   9.367   3.222
   30DIO     O3 1653   6.494   9.470   3.294
   30DIO    C21 1654   6.450   9.428   3.422
   30DIO    C22 1655   6.361   9.304   3.412
   30DIO    C23 1656   6.442   9.198   3.338
   30DIO     O4 1657   6.486   9.247   3.211
   30DIO    C24 1658   6.229   9.331   3.338
   30DIO    C25 1659   6.138   9.438   3.400
   30DIO    C26 1660   6.099   9.410   3.544
   30DIO     H1 1661   7.820   9.257   3.286
   30DIO     H2 1662   7.779   9.394   3.705
   30DIO     H3 1663   7.602   9.547   3.545
   30DIO     H4 1664   7.351   9.553   3.516
   30DIO     H5 1665   7.351   9.139   3.377
   30DIO     H6 1666   6.742   9.551   3.343
   30DIO     H7 1667   6.730   9.145   3.177
   30DIO     H8 1668   6.573   9.405   3.120
   30DIO     H9 1669   6.537   9.408   3.486
   30DIO    H10 1670   6.397   9.512   3.469
   30DIO    H11 1671   6.339   9.267   3.513
   30DIO    H12 1672   6.381   9.109   3.319
   30DIO    H13 1673   6.528   9.166   3.397
   30DIO    H14 1674   6.248   9.360   3.234
   30DIO    H15 1675   6.172   9.237   3.333
   30DIO    H16 1676   6.185   9.537   3.393
   30DIO    H17 1677   6.046   9.444   3.340
   30DIO    H18 1678   6.056   9.311   3.555
   30DIO    H19 1679   6.186   9.417   3.611
   30DIO    H20 1680   6.026   9.484   3.578
   31DIO     F1 1681   5.404   2.027   8.605
   31DIO     C1 1682   5.327   2.020   8.495
   31DIO     C2 1683   5.182   2.013   8.511
   31DIO     C3 1684   5.094   2.003   8.393
   31DIO     C4 1685   5.159   2.003   8.260
   31DIO     C5 1686   5.303   2.011   8.247
   31DIO     F2 1687   5.359   2.015   8.124
   31DIO     C6 1688   5.387   2.020   8.364
   31DIO     F3 1689   5.521   2.026   8.352
   31DIO     C7 1690   4.947   1.994   8.406
   31DIO     C8 1691   4.870   1.888   8.336
   31DIO     C9 1692   4.725   1.880   8.348
   31DIO    C10 1693   4.653   1.981   8.423
   31DIO    C11 1694   4.725   2.081   8.499
   31DIO    C12 1695   4.869   2.088   8.488
   31DIO     F4 1696   4.934   2.186   8.555
   31DIO     O1 1697   4.521   1.954   8.450
   31DIO    C13 1698   4.426   2.056   8.455
   31DIO     O2 1699   4.425   2.174   8.411
   31DIO    C14 1700   4.297   2.010   8.508
   31DIO    C15 1701   4.231   1.888   8.458
   31DIO     F5 1702   4.293   1.809   8.368
   31DIO    C16 1703   4.100   1.845   8.504
   31DIO    C17 1704   4.024   1.927   8.598
   31DIO    C18 1705   4.093   2.039   8.662
   31DIO    C19 1706   4.225   2.081   8.617
   31DIO     F6 1707   4.287   2.175   8.690
   31DIO    C20 1708   3.883   1.890   8.639
   31DIO     O3 1709   3.814   1.813   8.541
   31DIO    C21 1710   3.770   1.891   8.430
   31DIO    C22 1711   3.681   2.006   8.476
   31DIO    C23 1712   3.762   2.086   8.578
   31DIO     O4 1713   3.806   2.002   8.684
   31DIO    C24 1714   3.548   1.958   8.539
   31DIO    C25 1715   3.458   1.874   8.449
   31DIO    C26 1716   3.419   1.943   8.319
   31DIO     H1 1717   5.140   2.014   8.610
   31DIO     H2 1718   5.099   2.006   8.170
   31DIO     H3 1719   4.922   1.813   8.278
   31DIO     H4 1720   4.670   1.798   8.304
   31DIO     H5 1721   4.671   2.154   8.558
   31DIO     H6 1722   4.062   1.750   8.470
   31DIO     H7 1723   4.050   2.089   8.748
   31DIO     H8 1724   3.893   1.824   8.726
   31DIO     H9 1725   3.857   1.929   8.375
   31DIO    H10 1726   3.717   1.824   8.361
   31DIO    H11 1727   3.659   2.071   8.391
   31DIO    H12 1728   3.701   2.165   8.622
   31DIO    H13 1729   3.848   2.134   8.531
   31DIO    H14 1730   3.568   1.900   8.630
   31DIO    H15 1731   3.492   2.047   8.571
   31DIO    H16 1732   3.505   1.778   8.426
   31DIO    H17 1733   3.366   1.851   8.504
   31DIO    H18 1734   3.375   2.042   8.338
   31DIO    H19 1735   3.506   1.956   8.253
   31DIO    H20 1736   3.346   1.883   8.265
   32DIO     F1 1737   8.380   8.250   4.428
   32DIO     C1 1738   8.303   8.347   4.479
   32DIO     C2 1739   8.159   8.338   4.465
   32DIO     C3 1740   8.070   8.444   4.518
   32DIO     C4 1741   8.135   8.557   4.588
   32DIO     C5 1742   8.280   8.563   4.601
   32DIO     F2 1743   8.335   8.665   4.669
   32DIO     C6 1744   8.363   8.459   4.548
   32DIO     F3 1745   8.497   8.466   4.560
   32DIO     C7 1746   7.923   8.437   4.503
   32DIO     C8 1747   7.846   8.552   4.450
   32DIO     C9 1748   7.702   8.546   4.437
   32DIO    C10 1749   7.629   8.430   4.484
   32DIO    C11 1750   7.701   8.312   4.530
   32DIO    C12 1751   7.846   8.318   4.541
   32DIO     F4 1752   7.910   8.209   4.589
   32DIO     O1 1753   7.497   8.420   4.446
   32DIO    C13 1754   7.402   8.362   4.530
   32DIO     O2 1755   7.401   8.338   4.654
   32DIO    C14 1756   7.273   8.341   4.464
   32DIO    C15 1757   7.207   8.448   4.386
   32DIO     F5 1758   7.269   8.566   4.366
   32DIO    C16 1759   7.076   8.431   4.326
   32DIO    C17 1760   7.000   8.308   4.346
   32DIO    C18 1761   7.069   8.195   4.408
   32DIO    C19 1762   7.201   8.212   4.467
   32DIO     F6 1763   7.263   8.100   4.509
   32DIO    C20 1764   6.860   8.293   4.293
   32DIO     O3 1765   6.790   8.417   4.279
   32DIO    C21 1766   6.746   8.471   4.403
   32DIO    C22 1767   6.657   8.371   4.477
   32DIO    C23 1768   6.738   8.242   4.491
   32DIO     O4 1769   6.782   8.196   4.364
   32DIO    C24 1770   6.524   8.342   4.404
   32DIO    C25 1771   6.434   8.463   4.379
   32DIO    C26 1772   6.395   8.538   4.506
   32DIO     H1 1773   8.116   8.252   4.414
   32DIO     H2 1774   8.075   8.632   4.638
   32DIO     H3 1775   7.898   8.641   4.416
   32DIO     H4 1776   7.646   8.626   4.390
   32DIO     H5 1777   7.647   8.224   4.560
   32DIO     H6 1778   7.038   8.510   4.262
   32DIO     H7 1779   7.026   8.096   4.406
   32DIO     H8 1780   6.869   8.254   4.191
   32DIO     H9 1781   6.833   8.498   4.464
   32DIO    H10 1782   6.693   8.564   4.383
   32DIO    H11 1783   6.635   8.410   4.577
   32DIO    H12 1784   6.677   8.163   4.536
   32DIO    H13 1785   6.824   8.257   4.558
   32DIO    H14 1786   6.544   8.295   4.307
   32DIO    H15 1787   6.468   8.269   4.462
   32DIO    H16 1788   6.481   8.533   4.309
   32DIO    H17 1789   6.342   8.428   4.330
   32DIO    H18 1790   6.351   8.470   4.580
   32DIO    H19 1791   6.482   8.587   4.551
   32DIO    H20 1792   6.322   8.615   4.483
   33DIO     F1 1793   9.999   2.237   5.025
   33DIO     C1 1794   9.921   2.262   5.132
   33DIO     C2 1795   9.777   2.267   5.116
   33DIO     C3 1796   9.688   2.296   5.231
   33DIO     C4 1797   9.754   2.318   5.362
   33DIO     C5 1798   9.898   2.313   5.375
   33DIO     F2 1799   9.954   2.329   5.497
   33DIO     C6 1800   9.982   2.284   5.261
   33DIO     F3 1801  10.116   2.280   5.275
   33DIO     C7 1802   9.542   2.303   5.216
   33DIO     C8 1803   9.465   2.419   5.268
   33DIO     C9 1804   9.320   2.425   5.254
   33DIO    C10 1805   9.248   2.312   5.198
   33DIO    C11 1806   9.320   2.201   5.139
   33DIO    C12 1807   9.464   2.196   5.151
   33DIO     F4 1808   9.529   2.089   5.101
   33DIO     O1 1809   9.115   2.335   5.166
   33DIO    C13 1810   9.021   2.233   5.178
   33DIO     O2 1811   9.020   2.124   5.241
   33DIO    C14 1812   8.892   2.269   5.118
   33DIO    C15 1813   8.825   2.398   5.147
   33DIO     F5 1814   8.888   2.491   5.222
   33DIO    C16 1815   8.695   2.433   5.094
   33DIO    C17 1816   8.619   2.336   5.015
   33DIO    C18 1817   8.688   2.216   4.971
   33DIO    C19 1818   8.819   2.182   5.023
   33DIO     F6 1819   8.882   2.076   4.966
   33DIO    C20 1820   8.478   2.366   4.969
   33DIO     O3 1821   8.408   2.459   5.053
   33DIO    C21 1822   8.365   2.400   5.175
   33DIO    C22 1823   8.276   2.279   5.149
   33DIO    C23 1824   8.357   2.184   5.062
   33DIO     O4 1825   8.401   2.249   4.943
   33DIO    C24 1826   8.143   2.316   5.079
   33DIO    C25 1827   8.052   2.414   5.154
   33DIO    C26 1828   8.014   2.367   5.294
   33DIO     H1 1829   9.735   2.249   5.018
   33DIO     H2 1830   9.693   2.330   5.451
   33DIO     H3 1831   9.516   2.503   5.312
   33DIO     H4 1832   9.265   2.513   5.284
   33DIO     H5 1833   9.266   2.120   5.093
   33DIO     H6 1834   8.657   2.533   5.112
   33DIO     H7 1835   8.645   2.152   4.895
   33DIO     H8 1836   8.488   2.417   4.872
   33DIO     H9 1837   8.451   2.372   5.236
   33DIO    H10 1838   8.312   2.477   5.232
   33DIO    H11 1839   8.253   2.230   5.244
   33DIO    H12 1840   8.296   2.098   5.032
   33DIO    H13 1841   8.443   2.144   5.116
   33DIO    H14 1842   8.163   2.357   4.979
   33DIO    H15 1843   8.087   2.223   5.062
   33DIO    H16 1844   8.100   2.512   5.160
   33DIO    H17 1845   7.961   2.427   5.095
   33DIO    H18 1846   7.970   2.267   5.291
   33DIO    H19 1847   8.101   2.366   5.361
   33DIO    H20 1848   7.940   2.436   5.337
   34DIO     F1 1849   6.916  10.764   3.538
   34DIO     C1 1850   6.838  10.715   3.637
   34DIO     C2 1851   6.694  10.730   3.627
   34DIO     C3 1852   6.605  10.680   3.735
   34DIO     C4 1853   6.671  10.614   3.850
   34DIO     C5 1854   6.815  10.601   3.857
   34DIO     F2 1855   6.871  10.537   3.962
   34DIO     C6 1856   6.899  10.651   3.751
   34DIO     F3 1857   7.033  10.639   3.759
   34DIO     C7 1858   6.459  10.694   3.728
   34DIO     C8 1859   6.382  10.751   3.841
   34DIO     C9 1860   6.237  10.765   3.834
   34DIO    C10 1861   6.165  10.713   3.719
   34DIO    C11 1862   6.237  10.664   3.604
   34DIO    C12 1863   6.381  10.653   3.610
   34DIO     F4 1864   6.446  10.601   3.503
   34DIO     O1 1865   6.032  10.751   3.709
   34DIO    C13 1866   5.938  10.665   3.654
   34DIO     O2 1867   5.937  10.541   3.634
   34DIO    C14 1868   5.809  10.730   3.630
   34DIO    C15 1869   5.743  10.812   3.734
   34DIO     F5 1870   5.805  10.836   3.851
   34DIO    C16 1871   5.612  10.872   3.715
   34DIO    C17 1872   5.536  10.847   3.593
   34DIO    C18 1873   5.605  10.781   3.483
   34DIO    C19 1874   5.736  10.723   3.501
   34DIO     F6 1875   5.799  10.677   3.391
   34DIO    C20 1876   5.395  10.899   3.576
   34DIO     O3 1877   5.326  10.918   3.700
   34DIO    C21 1878   5.282  10.796   3.758
   34DIO    C22 1879   5.193  10.718   3.661
   34DIO    C23 1880   5.274  10.700   3.532
   34DIO     O4 1881   5.318  10.825   3.482
   34DIO    C24 1882   5.060  10.791   3.629
   34DIO    C25 1883   4.970  10.819   3.750
   34DIO    C26 1884   4.931  10.695   3.828
   34DIO     H1 1885   6.652  10.777   3.540
   34DIO     H2 1886   6.610  10.567   3.927
   34DIO     H3 1887   6.433  10.789   3.928
   34DIO     H4 1888   6.182  10.814   3.913
   34DIO     H5 1889   6.183  10.631   3.516
   34DIO     H6 1890   5.574  10.938   3.792
   34DIO     H7 1891   5.562  10.780   3.383
   34DIO     H8 1892   5.405  11.000   3.533
   34DIO     H9 1893   5.369  10.736   3.787
   34DIO    H10 1894   5.229  10.819   3.850
   34DIO    H11 1895   5.170  10.620   3.703
   34DIO    H12 1896   5.213  10.652   3.455
   34DIO    H13 1897   5.360  10.634   3.550
   34DIO    H14 1898   5.080  10.886   3.579
   34DIO    H15 1899   5.004  10.730   3.558
   34DIO    H16 1900   5.017  10.892   3.816
   34DIO    H17 1901   4.878  10.867   3.713
   34DIO    H18 1902   4.887  10.619   3.763
   34DIO    H19 1903   5.018  10.652   3.879
   34DIO    H20 1904   4.857  10.721   3.905
   35DIO     F1 1905   1.994  -0.821  -0.775
   35DIO     C1 1906   1.916  -0.719  -0.817
   35DIO     C2 1907   1.772  -0.736  -0.819
   35DIO     C3 1908   1.683  -0.627  -0.866
   35DIO     C4 1909   1.749  -0.501  -0.908
   35DIO     C5 1910   1.893  -0.487  -0.904
   35DIO     F2 1911   1.948  -0.369  -0.939
   35DIO     C6 1912   1.977  -0.595  -0.858
   35DIO     F3 1913   2.110  -0.581  -0.857
   35DIO     C7 1914   1.537  -0.643  -0.870
   35DIO     C8 1915   1.460  -0.610  -0.992
   35DIO     C9 1916   1.315  -0.624  -0.996
   35DIO    C10 1917   1.242  -0.663  -0.877
   35DIO    C11 1918   1.315  -0.703  -0.758
   35DIO    C12 1919   1.459  -0.691  -0.754
   35DIO     F4 1920   1.524  -0.724  -0.641
   35DIO     O1 1921   1.110  -0.698  -0.894
   35DIO    C13 1922   1.016  -0.670  -0.796
   35DIO     O2 1923   1.015  -0.591  -0.698
   35DIO    C14 1924   0.887  -0.735  -0.822
   35DIO    C15 1925   0.820  -0.726  -0.954
   35DIO     F5 1926   0.883  -0.666  -1.057
   35DIO    C16 1927   0.689  -0.783  -0.980
   35DIO    C17 1928   0.614  -0.847  -0.872
   35DIO    C18 1929   0.682  -0.872  -0.746
   35DIO    C19 1930   0.814  -0.815  -0.721
   35DIO     F6 1931   0.877  -0.855  -0.608
   35DIO    C20 1932   0.473  -0.897  -0.895
   35DIO     O3 1933   0.403  -0.828  -0.999
   35DIO    C21 1934   0.360  -0.698  -0.960
   35DIO    C22 1935   0.271  -0.706  -0.837
   35DIO    C23 1936   0.351  -0.777  -0.728
   35DIO     O4 1937   0.396  -0.905  -0.774
   35DIO    C24 1938   0.138  -0.780  -0.862
   35DIO    C25 1939   0.047  -0.721  -0.970
   35DIO    C26 1940   0.009  -0.576  -0.946
   35DIO     H1 1941   1.729  -0.830  -0.786
   35DIO     H2 1942   1.688  -0.415  -0.933
   35DIO     H3 1943   1.511  -0.579  -1.082
   35DIO     H4 1944   1.260  -0.608  -1.088
   35DIO     H5 1945   1.260  -0.737  -0.670
   35DIO     H6 1946   0.651  -0.781  -1.081
   35DIO     H7 1947   0.640  -0.937  -0.671
   35DIO     H8 1948   0.483  -1.000  -0.930
   35DIO     H9 1949   0.446  -0.634  -0.942
   35DIO    H10 1950   0.307  -0.654  -1.045
   35DIO    H11 1951   0.248  -0.604  -0.802
   35DIO    H12 1952   0.290  -0.794  -0.639
   35DIO    H13 1953   0.438  -0.717  -0.697
   35DIO    H14 1954   0.158  -0.885  -0.888
   35DIO    H15 1955   0.081  -0.783  -0.767
   35DIO    H16 1956   0.095  -0.731  -1.068
   35DIO    H17 1957  -0.045  -0.781  -0.975
   35DIO    H18 1958  -0.035  -0.563  -0.846
   35DIO    H19 1959   0.095  -0.510  -0.954
   35DIO    H20 1960  -0.065  -0.544  -1.020
   36DIO     F1 1961   8.181   2.402   5.647
   36DIO     C1 1962   8.103   2.511   5.662
   36DIO     C2 1963   7.959   2.497   5.652
   36DIO     C3 1964   7.870   2.615   5.665
   36DIO     C4 1965   7.936   2.745   5.692
   36DIO     C5 1966   8.080   2.756   5.702
   36DIO     F2 1967   8.136   2.875   5.730
   36DIO     C6 1968   8.164   2.639   5.688
   36DIO     F3 1969   8.298   2.651   5.696
   36DIO     C7 1970   7.724   2.604   5.654
   36DIO     C8 1971   7.647   2.693   5.564
   36DIO     C9 1972   7.502   2.683   5.553
   36DIO    C10 1973   7.430   2.590   5.638
   36DIO    C11 1974   7.502   2.495   5.722
   36DIO    C12 1975   7.646   2.504   5.730
   36DIO     F4 1976   7.711   2.419   5.812
   36DIO     O1 1977   7.297   2.568   5.606
   36DIO    C13 1978   7.203   2.543   5.705
   36DIO     O2 1979   7.202   2.563   5.829
   36DIO    C14 1980   7.074   2.500   5.650
   36DIO    C15 1981   7.007   2.573   5.540
   36DIO     F5 1982   7.070   2.677   5.480
   36DIO    C16 1983   6.877   2.536   5.489
   36DIO    C17 1984   6.801   2.428   5.551
   36DIO    C18 1985   6.870   2.344   5.648
   36DIO    C19 1986   7.001   2.380   5.697
   36DIO     F6 1987   7.064   2.289   5.776
   36DIO    C20 1988   6.660   2.396   5.506
   36DIO     O3 1989   6.590   2.507   5.450
   36DIO    C21 1990   6.547   2.600   5.548
   36DIO    C22 1991   6.458   2.533   5.652
   36DIO    C23 1992   6.539   2.417   5.710
   36DIO     O4 1993   6.583   2.329   5.607
   36DIO    C24 1994   6.325   2.480   5.593
   36DIO    C25 1995   6.234   2.585   5.528
   36DIO    C26 1996   6.196   2.699   5.621
   36DIO     H1 1997   7.917   2.399   5.634
   36DIO     H2 1998   7.875   2.833   5.712
   36DIO     H3 1999   7.698   2.765   5.502
   36DIO     H4 2000   7.447   2.742   5.482
   36DIO     H5 2001   7.448   2.423   5.780
   36DIO     H6 2002   6.839   2.589   5.402
   36DIO     H7 2003   6.827   2.250   5.680
   36DIO     H8 2004   6.670   2.323   5.424
   36DIO     H9 2005   6.633   2.647   5.596
   36DIO    H10 2006   6.494   2.681   5.497
   36DIO    H11 2007   6.435   2.603   5.732
   36DIO    H12 2008   6.478   2.358   5.779
   36DIO    H13 2009   6.625   2.454   5.767
   36DIO    H14 2010   6.345   2.402   5.518
   36DIO    H15 2011   6.269   2.431   5.673
   36DIO    H16 2012   6.282   2.626   5.438
   36DIO    H17 2013   6.143   2.535   5.494
   36DIO    H18 2014   6.152   2.661   5.714
   36DIO    H19 2015   6.283   2.761   5.647
   36DIO    H20 2016   6.122   2.764   5.573
   37DIO     F1 2017   1.337   2.725   4.720
   37DIO     C1 2018   1.260   2.818   4.661
   37DIO     C2 2019   1.116   2.801   4.662
   37DIO     C3 2020   1.027   2.900   4.596
   37DIO     C4 2021   1.092   3.017   4.533
   37DIO     C5 2022   1.237   3.031   4.533
   37DIO     F2 2023   1.292   3.141   4.478
   37DIO     C6 2024   1.320   2.933   4.598
   37DIO     F3 2025   1.454   2.947   4.597
   37DIO     C7 2026   0.880   2.884   4.595
   37DIO     C8 2027   0.803   2.895   4.469
   37DIO     C9 2028   0.659   2.880   4.467
   37DIO    C10 2029   0.586   2.863   4.592
   37DIO    C11 2030   0.658   2.845   4.716
   37DIO    C12 2031   0.803   2.857   4.717
   37DIO     F4 2032   0.867   2.845   4.835
   37DIO     O1 2033   0.454   2.826   4.581
   37DIO    C13 2034   0.359   2.870   4.673
   37DIO     O2 2035   0.358   2.966   4.755
   37DIO    C14 2036   0.230   2.802   4.659
   37DIO    C15 2037   0.164   2.787   4.527
   37DIO     F5 2038   0.226   2.828   4.415
   37DIO    C16 2039   0.033   2.726   4.512
   37DIO    C17 2040  -0.043   2.683   4.629
   37DIO    C18 2041   0.026   2.681   4.758
   37DIO    C19 2042   0.158   2.741   4.772
   37DIO     F6 2043   0.220   2.722   4.891
   37DIO    C20 2044  -0.183   2.630   4.616
   37DIO     O3 2045  -0.253   2.679   4.501
   37DIO    C21 2046  -0.297   2.813   4.516
   37DIO    C22 2047  -0.386   2.828   4.639
   37DIO    C23 2048  -0.305   2.777   4.758
   37DIO     O4 2049  -0.261   2.644   4.736
   37DIO    C24 2050  -0.519   2.750   4.628
   37DIO    C25 2051  -0.609   2.789   4.511
   37DIO    C26 2052  -0.648   2.936   4.509
   37DIO     H1 2053   1.073   2.715   4.711
   37DIO     H2 2054   1.032   3.097   4.492
   37DIO     H3 2055   0.855   2.909   4.375
   37DIO     H4 2056   0.603   2.879   4.374
   37DIO     H5 2057   0.604   2.827   4.808
   37DIO     H6 2058  -0.005   2.710   4.412
   37DIO     H7 2059  -0.017   2.630   4.843
   37DIO     H8 2060  -0.174   2.522   4.600
   37DIO     H9 2061  -0.210   2.880   4.523
   37DIO    H10 2062  -0.350   2.842   4.425
   37DIO    H11 2063  -0.408   2.934   4.655
   37DIO    H12 2064  -0.366   2.777   4.849
   37DIO    H13 2065  -0.219   2.842   4.778
   37DIO    H14 2066  -0.499   2.642   4.621
   37DIO    H15 2067  -0.575   2.765   4.721
   37DIO    H16 2068  -0.562   2.762   4.415
   37DIO    H17 2069  -0.701   2.729   4.517
   37DIO    H18 2070  -0.692   2.967   4.604
   37DIO    H19 2071  -0.561   3.000   4.488
   37DIO    H20 2072  -0.721   2.954   4.430
   38DIO     F1 2073   3.759   2.120   4.582
   38DIO     C1 2074   3.681   2.010   4.590
   38DIO     C2 2075   3.537   2.026   4.597
   38DIO     C3 2076   3.448   1.908   4.608
   38DIO     C4 2077   3.514   1.775   4.608
   38DIO     C5 2078   3.658   1.762   4.601
   38DIO     F2 2079   3.714   1.640   4.597
   38DIO     C6 2080   3.742   1.879   4.591
   38DIO     F3 2081   3.876   1.867   4.585
   38DIO     C7 2082   3.302   1.921   4.617
   38DIO     C8 2083   3.225   1.852   4.723
   38DIO     C9 2084   3.080   1.864   4.731
   38DIO    C10 2085   3.008   1.938   4.629
   38DIO    C11 2086   3.080   2.013   4.528
   38DIO    C12 2087   3.224   2.003   4.522
   38DIO     F4 2088   3.289   2.069   4.424
   38DIO     O1 2089   2.875   1.966   4.657
   38DIO    C13 2090   2.781   1.970   4.554
   38DIO     O2 2091   2.780   1.925   4.437
   38DIO    C14 2092   2.652   2.023   4.599
   38DIO    C15 2093   2.585   1.974   4.722
   38DIO     F5 2094   2.648   1.885   4.802
   38DIO    C16 2095   2.455   2.021   4.764
   38DIO    C17 2096   2.379   2.114   4.682
   38DIO    C18 2097   2.448   2.177   4.570
   38DIO    C19 2098   2.579   2.131   4.529
   38DIO     F6 2099   2.642   2.204   4.433
   38DIO    C20 2100   2.238   2.155   4.719
   38DIO     O3 2101   2.168   2.057   4.797
   38DIO    C21 2102   2.125   1.946   4.720
   38DIO    C22 2103   2.036   1.991   4.604
   38DIO    C23 2104   2.117   2.093   4.524
   38DIO     O4 2105   2.161   2.200   4.607
   38DIO    C24 2106   1.903   2.055   4.651
   38DIO    C25 2107   1.812   1.965   4.736
   38DIO    C26 2108   1.774   1.834   4.668
   38DIO     H1 2109   3.495   2.125   4.595
   38DIO     H2 2110   3.453   1.685   4.606
   38DIO     H3 2111   3.276   1.795   4.799
   38DIO     H4 2112   3.025   1.821   4.813
   38DIO     H5 2113   3.026   2.072   4.456
   38DIO     H6 2114   2.417   1.987   4.860
   38DIO     H7 2115   2.405   2.262   4.519
   38DIO     H8 2116   2.248   2.242   4.784
   38DIO     H9 2117   2.211   1.891   4.682
   38DIO    H10 2118   2.072   1.877   4.786
   38DIO    H11 2119   2.013   1.905   4.540
   38DIO    H12 2120   2.056   2.136   4.444
   38DIO    H13 2121   2.203   2.045   4.475
   38DIO    H14 2122   1.923   2.146   4.709
   38DIO    H15 2123   1.847   2.086   4.563
   38DIO    H16 2124   1.860   1.943   4.832
   38DIO    H17 2125   1.721   2.020   4.759
   38DIO    H18 2126   1.730   1.853   4.569
   38DIO    H19 2127   1.861   1.768   4.656
   38DIO    H20 2128   1.700   1.781   4.729
   39DIO     F1 2129   3.081   4.824   6.070
   39DIO     C1 2130   3.003   4.930   6.039
   39DIO     C2 2131   2.859   4.913   6.035
   39DIO     C3 2132   2.770   5.026   5.999
   39DIO     C4 2133   2.836   5.156   5.969
   39DIO     C5 2134   2.980   5.170   5.974
   39DIO     F2 2135   3.035   5.290   5.951
   39DIO     C6 2136   3.064   5.057   6.009
   39DIO     F3 2137   3.198   5.071   6.012
   39DIO     C7 2138   2.624   5.011   5.993
   39DIO     C8 2139   2.547   5.056   5.875
   39DIO     C9 2140   2.402   5.042   5.869
   39DIO    C10 2141   2.329   4.992   5.985
   39DIO    C11 2142   2.402   4.940   6.099
   39DIO    C12 2143   2.546   4.952   6.104
   39DIO     F4 2144   2.611   4.909   6.214
   39DIO     O1 2145   2.197   4.959   5.964
   39DIO    C13 2146   2.103   4.977   6.065
   39DIO     O2 2147   2.102   5.046   6.170
   39DIO    C14 2148   1.974   4.915   6.032
   39DIO    C15 2149   1.907   4.936   5.902
   39DIO     F5 2150   1.970   5.006   5.805
   39DIO    C16 2151   1.777   4.882   5.871
   39DIO    C17 2152   1.701   4.809   5.971
   39DIO    C18 2153   1.770   4.772   6.095
   39DIO    C19 2154   1.901   4.825   6.125
   39DIO     F6 2155   1.964   4.775   6.234
   39DIO    C20 2156   1.560   4.761   5.944
   39DIO     O3 2157   1.490   4.839   5.847
   39DIO    C21 2158   1.447   4.965   5.898
   39DIO    C22 2159   1.358   4.946   6.021
   39DIO    C23 2160   1.439   4.864   6.121
   39DIO     O4 2161   1.483   4.741   6.063
   39DIO    C24 2162   1.225   4.873   5.988
   39DIO    C25 2163   1.134   4.943   5.886
   39DIO    C26 2164   1.096   5.085   5.924
   39DIO     H1 2165   2.816   4.817   6.059
   39DIO     H2 2166   2.775   5.244   5.952
   39DIO     H3 2167   2.598   5.095   5.788
   39DIO     H4 2168   2.347   5.067   5.780
   39DIO     H5 2169   2.348   4.899   6.183
   39DIO     H6 2170   1.738   4.894   5.770
   39DIO     H7 2171   1.727   4.699   6.163
   39DIO     H8 2172   1.570   4.661   5.899
   39DIO     H9 2173   1.533   5.027   5.923
   39DIO    H10 2174   1.394   5.017   5.818
   39DIO    H11 2175   1.335   5.043   6.065
   39DIO    H12 2176   1.377   4.839   6.209
   39DIO    H13 2177   1.525   4.921   6.158
   39DIO    H14 2178   1.245   4.772   5.952
   39DIO    H15 2179   1.169   4.862   6.082
   39DIO    H16 2180   1.182   4.943   5.787
   39DIO    H17 2181   1.043   4.883   5.876
   39DIO    H18 2182   1.052   5.088   6.025
   39DIO    H19 2183   1.182   5.152   5.922
   39DIO    H20 2184   1.022   5.124   5.853
   40DIO     F1 2185  10.073   5.899   0.341
   40DIO     C1 2186   9.995   5.986   0.409
   40DIO     C2 2187   9.851   5.979   0.393
   40DIO     C3 2188   9.762   6.074   0.464
   40DIO     C4 2189   9.828   6.172   0.554
   40DIO     C5 2190   9.972   6.177   0.568
   40DIO     F2 2191  10.027   6.265   0.653
   40DIO     C6 2192  10.056   6.083   0.496
   40DIO     F3 2193  10.190   6.089   0.509
   40DIO     C7 2194   9.616   6.070   0.449
   40DIO     C8 2195   9.539   6.192   0.417
   40DIO     C9 2196   9.394   6.189   0.402
   40DIO    C10 2197   9.321   6.066   0.428
   40DIO    C11 2198   9.394   5.942   0.452
   40DIO    C12 2199   9.538   5.946   0.464
   40DIO     F4 2200   9.603   5.831   0.492
   40DIO     O1 2201   9.189   6.064   0.389
   40DIO    C13 2202   9.095   5.992   0.462
   40DIO     O2 2203   9.094   5.945   0.579
   40DIO    C14 2204   8.966   5.982   0.393
   40DIO    C15 2205   8.899   6.102   0.335
   40DIO     F5 2206   8.962   6.221   0.337
   40DIO    C16 2207   8.769   6.096   0.273
   40DIO    C17 2208   8.693   5.971   0.271
   40DIO    C18 2209   8.762   5.849   0.311
   40DIO    C19 2210   8.893   5.855   0.372
   40DIO     F6 2211   8.956   5.737   0.394
   40DIO    C20 2212   8.552   5.966   0.216
   40DIO     O3 2213   8.482   6.091   0.224
   40DIO    C21 2214   8.439   6.121   0.356
   40DIO    C22 2215   8.350   6.010   0.411
   40DIO    C23 2216   8.431   5.880   0.402
   40DIO     O4 2217   8.475   5.857   0.269
   40DIO    C24 2218   8.217   5.995   0.333
   40DIO    C25 2219   8.126   6.118   0.331
   40DIO    C26 2220   8.088   6.169   0.470
   40DIO     H1 2221   9.808   5.904   0.328
   40DIO     H2 2222   9.767   6.238   0.616
   40DIO     H3 2223   9.590   6.286   0.400
   40DIO     H4 2224   9.339   6.276   0.371
   40DIO     H5 2225   9.340   5.850   0.466
   40DIO     H6 2226   8.730   6.185   0.225
   40DIO     H7 2227   8.719   5.752   0.291
   40DIO     H8 2228   8.562   5.945   0.109
   40DIO     H9 2229   8.525   6.136   0.421
   40DIO    H10 2230   8.386   6.217   0.353
   40DIO    H11 2231   8.327   6.030   0.516
   40DIO    H12 2232   8.369   5.795   0.432
   40DIO    H13 2233   8.517   5.883   0.470
   40DIO    H14 2234   8.237   5.966   0.230
   40DIO    H15 2235   8.161   5.912   0.378
   40DIO    H16 2236   8.174   6.199   0.275
   40DIO    H17 2237   8.035   6.092   0.277
   40DIO    H18 2238   8.044   6.089   0.530
   40DIO    H19 2239   8.174   6.209   0.523
   40DIO    H20 2240   8.014   6.249   0.461
   41DIO     F1 2241   2.589  -0.046  10.502
   41DIO     C1 2242   2.511   0.030  10.582
   41DIO     C2 2243   2.367   0.026  10.566
   41DIO     C3 2244   2.278   0.109  10.650
   41DIO     C4 2245   2.344   0.194  10.752
   41DIO     C5 2246   2.488   0.196  10.767
   41DIO     F2 2247   2.543   0.271  10.864
   41DIO     C6 2248   2.572   0.114  10.683
   41DIO     F3 2249   2.705   0.117  10.696
   41DIO     C7 2250   2.132   0.108  10.634
   41DIO     C8 2251   2.055   0.233  10.620
   41DIO     C9 2252   1.910   0.232  10.605
   41DIO    C10 2253   1.837   0.106  10.613
   41DIO    C11 2254   1.910  -0.020  10.619
   41DIO    C12 2255   2.054  -0.018  10.631
   41DIO     F4 2256   2.119  -0.136  10.642
   41DIO     O1 2257   1.705   0.110  10.574
   41DIO    C13 2258   1.611   0.028  10.636
   41DIO     O2 2259   1.610  -0.035  10.745
   41DIO    C14 2260   1.481   0.029  10.566
   41DIO    C15 2261   1.415   0.155  10.526
   41DIO     F5 2262   1.478   0.273  10.545
   41DIO    C16 2263   1.284   0.158  10.463
   41DIO    C17 2264   1.209   0.035  10.443
   41DIO    C18 2265   1.277  -0.091  10.466
   41DIO    C19 2266   1.409  -0.094  10.527
   41DIO     F6 2267   1.471  -0.214  10.532
   41DIO    C20 2268   1.068   0.038  10.389
   41DIO     O3 2269   0.998   0.160  10.415
   41DIO    C21 2270   0.954   0.171  10.550
   41DIO    C22 2271   0.866   0.053  10.588
   41DIO    C23 2272   0.946  -0.074  10.560
   41DIO     O4 2273   0.991  -0.077  10.425
   41DIO    C24 2274   0.733   0.049  10.509
   41DIO    C25 2275   0.642   0.172  10.525
   41DIO    C26 2276   0.604   0.202  10.669
   41DIO     H1 2277   2.324  -0.039  10.490
   41DIO     H2 2278   2.283   0.249  10.823
   41DIO     H3 2279   2.106   0.328  10.617
   41DIO     H4 2280   1.855   0.323  10.587
   41DIO     H5 2281   1.855  -0.113  10.619
   41DIO     H6 2282   1.246   0.254  10.429
   41DIO     H7 2283   1.234  -0.185  10.432
   41DIO     H8 2284   1.078   0.033  10.280
   41DIO     H9 2285   1.041   0.177  10.616
   41DIO    H10 2286   0.902   0.266  10.560
   41DIO    H11 2287   0.843   0.058  10.695
   41DIO    H12 2288   0.885  -0.163  10.578
   41DIO    H13 2289   1.032  -0.081  10.628
   41DIO    H14 2290   0.753   0.036  10.402
   41DIO    H15 2291   0.676  -0.039  10.541
   41DIO    H16 2292   0.689   0.260  10.480
   41DIO    H17 2293   0.550   0.154  10.467
   41DIO    H18 2294   0.560   0.114  10.717
   41DIO    H19 2295   0.690   0.234  10.727
   41DIO    H20 2296   0.530   0.283  10.672
   42DIO     F1 2297   2.920  10.086   3.293
   42DIO     C1 2298   2.842   9.980   3.262
   42DIO     C2 2299   2.698   9.992   3.274
   42DIO     C3 2300   2.610   9.878   3.243
   42DIO     C4 2301   2.675   9.753   3.196
   42DIO     C5 2302   2.819   9.744   3.185
   42DIO     F2 2303   2.875   9.631   3.138
   42DIO     C6 2304   2.903   9.857   3.217
   42DIO     F3 2305   3.037   9.847   3.207
   42DIO     C7 2306   2.463   9.887   3.256
   42DIO     C8 2307   2.386   9.785   3.330
   42DIO     C9 2308   2.241   9.794   3.343
   42DIO    C10 2309   2.169   9.898   3.273
   42DIO    C11 2310   2.241  10.005   3.206
   42DIO    C12 2311   2.385   9.997   3.195
   42DIO     F4 2312   2.450  10.094   3.127
   42DIO     O1 2313   2.037   9.915   3.309
   42DIO    C13 2314   1.942   9.955   3.215
   42DIO     O2 2315   1.941   9.955   3.089
   42DIO    C14 2316   1.813   9.989   3.276
   42DIO    C15 2317   1.747   9.900   3.373
   42DIO     F5 2318   1.809   9.788   3.416
   42DIO    C16 2319   1.616   9.928   3.429
   42DIO    C17 2320   1.540  10.045   3.385
   42DIO    C18 2321   1.609  10.143   3.302
   42DIO    C19 2322   1.740  10.115   3.247
   42DIO     F6 2323   1.803  10.216   3.184
   42DIO    C20 2324   1.399  10.070   3.434
   42DIO     O3 2325   1.330   9.951   3.472
   42DIO    C21 2326   1.286   9.874   3.361
   42DIO    C22 2327   1.197   9.957   3.269
   42DIO    C23 2328   1.278  10.081   3.229
   42DIO     O4 2329   1.322  10.151   3.345
   42DIO    C24 2330   1.064  10.000   3.335
   42DIO    C25 2331   0.974   9.886   3.383
   42DIO    C26 2332   0.935   9.788   3.273
   42DIO     H1 2333   2.656  10.086   3.307
   42DIO     H2 2334   2.614   9.670   3.163
   42DIO     H3 2335   2.438   9.705   3.381
   42DIO     H4 2336   2.186   9.724   3.404
   42DIO     H5 2337   2.187  10.085   3.159
   42DIO     H6 2338   1.578   9.863   3.507
   42DIO     H7 2339   1.566  10.241   3.284
   42DIO     H8 2340   1.409  10.129   3.526
   42DIO     H9 2341   1.373   9.836   3.306
   42DIO    H10 2342   1.233   9.786   3.399
   42DIO    H11 2343   1.175   9.900   3.178
   42DIO    H12 2344   1.217  10.149   3.170
   42DIO    H13 2345   1.364  10.053   3.167
   42DIO    H14 2346   1.084  10.065   3.421
   42DIO    H15 2347   1.008  10.061   3.263
   42DIO    H16 2348   1.021   9.832   3.465
   42DIO    H17 2349   0.882   9.930   3.424
   42DIO    H18 2350   0.891   9.840   3.187
   42DIO    H19 2351   1.022   9.731   3.238
   42DIO    H20 2352   0.862   9.716   3.311
   43DIO     F1 2353   5.910   5.384   5.892
   43DIO     C1 2354   5.833   5.281   5.929
   43DIO     C2 2355   5.689   5.298   5.932
   43DIO     C3 2356   5.600   5.187   5.975
   43DIO     C4 2357   5.665   5.059   6.012
   43DIO     C5 2358   5.810   5.045   6.008
   43DIO     F2 2359   5.865   4.926   6.038
   43DIO     C6 2360   5.893   5.155   5.966
   43DIO     F3 2361   6.027   5.141   5.964
   43DIO     C7 2362   5.453   5.202   5.980
   43DIO     C8 2363   5.376   5.165   6.101
   43DIO     C9 2364   5.232   5.179   6.105
   43DIO    C10 2365   5.159   5.222   5.987
   43DIO    C11 2366   5.232   5.267   5.870
   43DIO    C12 2367   5.376   5.255   5.866
   43DIO     F4 2368   5.441   5.292   5.754
   43DIO     O1 2369   5.027   5.256   6.006
   43DIO    C13 2370   4.932   5.233   5.906
   43DIO     O2 2371   4.931   5.158   5.805
   43DIO    C14 2372   4.803   5.296   5.935
   43DIO    C15 2373   4.737   5.282   6.067
   43DIO     F5 2374   4.800   5.218   6.167
   43DIO    C16 2375   4.606   5.338   6.095
   43DIO    C17 2376   4.530   5.406   5.990
   43DIO    C18 2377   4.599   5.436   5.865
   43DIO    C19 2378   4.731   5.381   5.838
   43DIO     F6 2379   4.793   5.424   5.726
   43DIO    C20 2380   4.390   5.455   6.014
   43DIO     O3 2381   4.320   5.382   6.116
   43DIO    C21 2382   4.276   5.254   6.072
   43DIO    C22 2383   4.187   5.266   5.949
   43DIO    C23 2384   4.268   5.342   5.843
   43DIO     O4 2385   4.312   5.468   5.894
   43DIO    C24 2386   4.055   5.340   5.977
   43DIO    C25 2387   3.964   5.277   6.083
   43DIO    C26 2388   3.925   5.133   6.053
   43DIO     H1 2389   5.646   5.393   5.903
   43DIO     H2 2390   5.605   4.972   6.034
   43DIO     H3 2391   5.428   5.130   6.189
   43DIO     H4 2392   5.177   5.159   6.196
   43DIO     H5 2393   5.177   5.304   5.784
   43DIO     H6 2394   4.568   5.332   6.196
   43DIO     H7 2395   4.556   5.504   5.793
   43DIO     H8 2396   4.399   5.557   6.053
   43DIO     H9 2397   4.363   5.191   6.051
   43DIO    H10 2398   4.223   5.206   6.155
   43DIO    H11 2399   4.165   5.166   5.910
   43DIO    H12 2400   4.207   5.362   5.755
   43DIO    H13 2401   4.354   5.283   5.810
   43DIO    H14 2402   4.074   5.444   6.007
   43DIO    H15 2403   3.998   5.346   5.883
   43DIO    H16 2404   4.011   5.282   6.181
   43DIO    H17 2405   3.872   5.337   6.090
   43DIO    H18 2406   3.882   5.124   5.953
   43DIO    H19 2407   4.012   5.066   6.059
   43DIO    H20 2408   3.852   5.098   6.126
   44DIO     F1 2409   1.150   3.779   4.365
   44DIO     C1 2410   1.072   3.827   4.464
   44DIO     C2 2411   0.928   3.828   4.447
   44DIO     C3 2412   0.839   3.882   4.552
   44DIO     C4 2413   0.905   3.932   4.676
   44DIO     C5 2414   1.049   3.929   4.690
   44DIO     F2 2415   1.104   3.971   4.806
   44DIO     C6 2416   1.133   3.876   4.585
   44DIO     F3 2417   1.266   3.876   4.599
   44DIO     C7 2418   0.693   3.885   4.537
   44DIO     C8 2419   0.616   4.009   4.562
   44DIO     C9 2420   0.471   4.012   4.547
   44DIO    C10 2421   0.398   3.890   4.517
   44DIO    C11 2422   0.471   3.769   4.484
   44DIO    C12 2423   0.615   3.766   4.496
   44DIO     F4 2424   0.680   3.651   4.471
   44DIO     O1 2425   0.266   3.905   4.481
   44DIO    C13 2426   0.172   3.809   4.514
   44DIO     O2 2427   0.171   3.716   4.600
   44DIO    C14 2428   0.042   3.831   4.448
   44DIO    C15 2429  -0.024   3.963   4.448
   44DIO     F5 2430   0.039   4.070   4.502
   44DIO    C16 2431  -0.155   3.985   4.390
   44DIO    C17 2432  -0.230   3.874   4.333
   44DIO    C18 2433  -0.162   3.747   4.317
   44DIO    C19 2434  -0.030   3.725   4.374
   44DIO     F6 2435   0.032   3.610   4.342
   44DIO    C20 2436  -0.371   3.893   4.282
   44DIO     O3 2437  -0.441   4.002   4.344
   44DIO    C21 2438  -0.485   3.971   4.476
   44DIO    C22 2439  -0.573   3.847   4.476
   44DIO    C23 2440  -0.493   3.735   4.412
   44DIO     O4 2441  -0.448   3.773   4.282
   44DIO    C24 2442  -0.706   3.868   4.400
   44DIO    C25 2443  -0.797   3.980   4.452
   44DIO    C26 2444  -0.835   3.965   4.599
   44DIO     H1 2445   0.885   3.789   4.355
   44DIO     H2 2446   0.844   3.963   4.760
   44DIO     H3 2447   0.667   4.101   4.587
   44DIO     H4 2448   0.416   4.105   4.557
   44DIO     H5 2449   0.416   3.680   4.456
   44DIO     H6 2450  -0.193   4.087   4.385
   44DIO     H7 2451  -0.205   3.668   4.256
   44DIO     H8 2452  -0.361   3.921   4.176
   44DIO     H9 2453  -0.398   3.957   4.541
   44DIO    H10 2454  -0.537   4.059   4.515
   44DIO    H11 2455  -0.596   3.819   4.580
   44DIO    H12 2456  -0.554   3.645   4.401
   44DIO    H13 2457  -0.407   3.708   4.474
   44DIO    H14 2458  -0.686   3.887   4.294
   44DIO    H15 2459  -0.763   3.773   4.404
   44DIO    H16 2460  -0.750   4.077   4.436
   44DIO    H17 2461  -0.889   3.980   4.392
   44DIO    H18 2462  -0.879   3.866   4.618
   44DIO    H19 2463  -0.749   3.978   4.664
   44DIO    H20 2464  -0.909   4.041   4.626
   45DIO     F1 2465  10.381   9.331   2.213
   45DIO     C1 2466  10.303   9.412   2.287
   45DIO     C2 2467  10.159   9.407   2.271
   45DIO     C3 2468  10.070   9.496   2.348
   45DIO     C4 2469  10.136   9.588   2.444
   45DIO     C5 2470  10.280   9.592   2.459
   45DIO     F2 2471  10.335   9.674   2.550
   45DIO     C6 2472  10.364   9.504   2.381
   45DIO     F3 2473  10.498   9.508   2.394
   45DIO     C7 2474   9.924   9.494   2.333
   45DIO     C8 2475   9.847   9.618   2.310
   45DIO     C9 2476   9.702   9.615   2.295
   45DIO    C10 2477   9.629   9.491   2.312
   45DIO    C11 2478   9.702   9.366   2.327
   45DIO    C12 2479   9.846   9.368   2.340
   45DIO     F4 2480   9.911   9.252   2.359
   45DIO     O1 2481   9.497   9.491   2.273
   45DIO    C13 2482   9.403   9.414   2.340
   45DIO     O2 2483   9.402   9.360   2.454
   45DIO    C14 2484   9.274   9.410   2.271
   45DIO    C15 2485   9.207   9.533   2.222
   45DIO     F5 2486   9.270   9.652   2.231
   45DIO    C16 2487   9.077   9.532   2.159
   45DIO    C17 2488   9.001   9.407   2.148
   45DIO    C18 2489   9.070   9.283   2.180
   45DIO    C19 2490   9.201   9.284   2.242
   45DIO     F6 2491   9.264   9.165   2.255
   45DIO    C20 2492   8.860   9.406   2.093
   45DIO     O3 2493   8.790   9.530   2.110
   45DIO    C21 2494   8.747   9.551   2.244
   45DIO    C22 2495   8.658   9.436   2.291
   45DIO    C23 2496   8.739   9.308   2.273
   45DIO     O4 2497   8.783   9.294   2.138
   45DIO    C24 2498   8.525   9.426   2.212
   45DIO    C25 2499   8.434   9.550   2.219
   45DIO    C26 2500   8.396   9.590   2.360
   45DIO     H1 2501  10.116   9.337   2.200
   45DIO     H2 2502  10.075   9.649   2.511
   45DIO     H3 2503   9.898   9.712   2.299
   45DIO     H4 2504   9.647   9.705   2.270
   45DIO     H5 2505   9.648   9.273   2.335
   45DIO     H6 2506   9.038   9.624   2.117
   45DIO     H7 2507   9.027   9.187   2.154
   45DIO     H8 2508   8.870   9.393   1.985
   45DIO     H9 2509   8.833   9.562   2.310
   45DIO    H10 2510   8.694   9.646   2.247
   45DIO    H11 2511   8.635   9.449   2.397
   45DIO    H12 2512   8.677   9.220   2.297
   45DIO    H13 2513   8.825   9.306   2.341
   45DIO    H14 2514   8.545   9.405   2.107
   45DIO    H15 2515   8.469   9.340   2.251
   45DIO    H16 2516   8.482   9.634   2.168
   45DIO    H17 2517   8.343   9.528   2.163
   45DIO    H18 2518   8.352   9.507   2.415
   45DIO    H19 2519   8.482   9.627   2.416
   45DIO    H20 2520   8.322   9.671   2.357
   46DIO     F1 2521   5.978   9.694   6.018
   46DIO     C1 2522   5.900   9.784   5.955
   46DIO     C2 2523   5.756   9.768   5.956
   46DIO     C3 2524   5.667   9.863   5.887
   46DIO     C4 2525   5.733   9.978   5.819
   46DIO     C5 2526   5.877   9.992   5.819
   46DIO     F2 2527   5.933  10.100   5.759
   46DIO     C6 2528   5.961   9.897   5.887
   46DIO     F3 2529   6.095   9.911   5.886
   46DIO     C7 2530   5.521   9.847   5.886
   46DIO     C8 2531   5.444   9.853   5.760
   46DIO     C9 2532   5.299   9.838   5.759
   46DIO    C10 2533   5.227   9.827   5.884
   46DIO    C11 2534   5.299   9.813   6.009
   46DIO    C12 2535   5.443   9.826   6.009
   46DIO     F4 2536   5.508   9.818   6.127
   46DIO     O1 2537   5.094   9.789   5.875
   46DIO    C13 2538   5.000   9.837   5.965
   46DIO     O2 2539   4.999   9.936   6.043
   46DIO    C14 2540   4.871   9.768   5.953
   46DIO    C15 2541   4.804   9.748   5.823
   46DIO     F5 2542   4.867   9.784   5.709
   46DIO    C16 2543   4.674   9.687   5.810
   46DIO    C17 2544   4.598   9.648   5.928
   46DIO    C18 2545   4.667   9.651   6.057
   46DIO    C19 2546   4.798   9.712   6.069
   46DIO     F6 2547   4.861   9.698   6.188
   46DIO    C20 2548   4.457   9.594   5.917
   46DIO     O3 2549   4.387   9.639   5.800
   46DIO    C21 2550   4.344   9.774   5.810
   46DIO    C22 2551   4.255   9.794   5.932
   46DIO    C23 2552   4.336   9.747   6.054
   46DIO     O4 2553   4.380   9.613   6.036
   46DIO    C24 2554   4.122   9.715   5.924
   46DIO    C25 2555   4.031   9.749   5.806
   46DIO    C26 2556   3.993   9.896   5.798
   46DIO     H1 2557   5.714   9.683   6.009
   46DIO     H2 2558   5.672  10.056   5.775
   46DIO     H3 2559   5.495   9.864   5.665
   46DIO     H4 2560   5.244   9.834   5.666
   46DIO     H5 2561   5.245   9.800   6.101
   46DIO     H6 2562   4.636   9.667   5.710
   46DIO     H7 2563   4.624   9.604   6.144
   46DIO     H8 2564   4.467   9.486   5.906
   46DIO     H9 2565   4.430   9.841   5.814
   46DIO    H10 2566   4.291   9.799   5.718
   46DIO    H11 2567   4.232   9.900   5.944
   46DIO    H12 2568   4.275   9.751   6.144
   46DIO    H13 2569   4.422   9.813   6.071
   46DIO    H14 2570   4.142   9.607   5.922
   46DIO    H15 2571   4.066   9.733   6.017
   46DIO    H16 2572   4.079   9.719   5.712
   46DIO    H17 2573   3.940   9.690   5.814
   46DIO    H18 2574   3.949   9.931   5.892
   46DIO    H19 2575   4.080   9.959   5.775
   46DIO    H20 2576   3.919   9.911   5.718
   47DIO     F1 2577   3.091   3.083   7.710
   47DIO     C1 2578   3.013   3.179   7.763
   47DIO     C2 2579   2.869   3.171   7.748
   47DIO     C3 2580   2.780   3.275   7.803
   47DIO     C4 2581   2.846   3.387   7.875
   47DIO     C5 2582   2.990   3.394   7.888
   47DIO     F2 2583   3.045   3.495   7.958
   47DIO     C6 2584   3.074   3.290   7.833
   47DIO     F3 2585   3.207   3.297   7.845
   47DIO     C7 2586   2.634   3.269   7.788
   47DIO     C8 2587   2.557   3.385   7.737
   47DIO     C9 2588   2.412   3.379   7.723
   47DIO    C10 2589   2.339   3.262   7.769
   47DIO    C11 2590   2.412   3.144   7.813
   47DIO    C12 2591   2.556   3.149   7.824
   47DIO     F4 2592   2.621   3.040   7.870
   47DIO     O1 2593   2.207   3.253   7.731
   47DIO    C13 2594   2.113   3.194   7.814
   47DIO     O2 2595   2.112   3.167   7.937
   47DIO    C14 2596   1.983   3.174   7.748
   47DIO    C15 2597   1.917   3.282   7.671
   47DIO     F5 2598   1.980   3.400   7.653
   47DIO    C16 2599   1.786   3.266   7.611
   47DIO    C17 2600   1.711   3.142   7.629
   47DIO    C18 2601   1.779   3.029   7.689
   47DIO    C19 2602   1.911   3.044   7.748
   47DIO     F6 2603   1.973   2.932   7.789
   47DIO    C20 2604   1.570   3.128   7.576
   47DIO     O3 2605   1.500   3.253   7.563
   47DIO    C21 2606   1.456   3.304   7.689
   47DIO    C22 2607   1.368   3.203   7.761
   47DIO    C23 2608   1.448   3.074   7.773
   47DIO     O4 2609   1.493   3.030   7.645
   47DIO    C24 2610   1.235   3.176   7.687
   47DIO    C25 2611   1.144   3.297   7.665
   47DIO    C26 2612   1.106   3.370   7.793
   47DIO     H1 2613   2.826   3.086   7.696
   47DIO     H2 2614   2.785   3.462   7.926
   47DIO     H3 2615   2.608   3.474   7.705
   47DIO     H4 2616   2.357   3.460   7.678
   47DIO     H5 2617   2.357   3.055   7.841
   47DIO     H6 2618   1.748   3.346   7.548
   47DIO     H7 2619   1.736   2.929   7.685
   47DIO     H8 2620   1.580   3.091   7.473
   47DIO     H9 2621   1.543   3.330   7.750
   47DIO    H10 2622   1.404   3.398   7.670
   47DIO    H11 2623   1.345   3.240   7.862
   47DIO    H12 2624   1.387   2.995   7.817
   47DIO    H13 2625   1.534   3.088   7.840
   47DIO    H14 2626   1.255   3.130   7.589
   47DIO    H15 2627   1.178   3.101   7.744
   47DIO    H16 2628   1.191   3.368   7.596
   47DIO    H17 2629   1.052   3.263   7.615
   47DIO    H18 2630   1.062   3.301   7.866
   47DIO    H19 2631   1.192   3.418   7.839
   47DIO    H20 2632   1.032   3.448   7.771
   48DIO     F1 2633   5.394  10.279   4.822
   48DIO     C1 2634   5.316  10.253   4.715
   48DIO     C2 2635   5.172  10.248   4.731
   48DIO     C3 2636   5.083  10.218   4.617
   48DIO     C4 2637   5.149  10.195   4.486
   48DIO     C5 2638   5.293  10.200   4.472
   48DIO     F2 2639   5.348  10.183   4.351
   48DIO     C6 2640   5.377  10.230   4.586
   48DIO     F3 2641   5.510  10.234   4.572
   48DIO     C7 2642   4.937  10.211   4.632
   48DIO     C8 2643   4.860  10.095   4.581
   48DIO     C9 2644   4.715  10.089   4.595
   48DIO    C10 2645   4.642  10.202   4.650
   48DIO    C11 2646   4.715  10.314   4.708
   48DIO    C12 2647   4.859  10.319   4.696
   48DIO     F4 2648   4.924  10.426   4.745
   48DIO     O1 2649   4.510  10.180   4.682
   48DIO    C13 2650   4.416  10.281   4.670
   48DIO     O2 2651   4.415  10.389   4.606
   48DIO    C14 2652   4.287  10.246   4.730
   48DIO    C15 2653   4.220  10.116   4.702
   48DIO     F5 2654   4.283  10.023   4.627
   48DIO    C16 2655   4.089  10.082   4.755
   48DIO    C17 2656   4.014  10.180   4.833
   48DIO    C18 2657   4.082  10.301   4.876
   48DIO    C19 2658   4.214  10.334   4.824
   48DIO     F6 2659   4.277  10.440   4.879
   48DIO    C20 2660   3.873  10.150   4.879
   48DIO     O3 2661   3.803  10.057   4.796
   48DIO    C21 2662   3.760  10.114   4.673
   48DIO    C22 2663   3.671  10.235   4.698
   48DIO    C23 2664   3.751  10.332   4.785
   48DIO     O4 2665   3.796  10.268   4.905
   48DIO    C24 2666   3.538  10.200   4.769
   48DIO    C25 2667   3.447  10.101   4.695
   48DIO    C26 2668   3.409  10.146   4.555
   48DIO     H1 2669   5.129  10.267   4.829
   48DIO     H2 2670   5.088  10.182   4.397
   48DIO     H3 2671   4.911  10.011   4.537
   48DIO     H4 2672   4.660  10.001   4.566
   48DIO     H5 2673   4.660  10.395   4.753
   48DIO     H6 2674   4.051   9.983   4.738
   48DIO     H7 2675   4.040  10.365   4.951
   48DIO     H8 2676   3.883  10.100   4.976
   48DIO     H9 2677   3.846  10.142   4.612
   48DIO    H10 2678   3.707  10.037   4.617
   48DIO    H11 2679   3.648  10.284   4.603
   48DIO    H12 2680   3.690  10.418   4.814
   48DIO    H13 2681   3.838  10.371   4.730
   48DIO    H14 2682   3.558  10.159   4.869
   48DIO    H15 2683   3.481  10.293   4.785
   48DIO    H16 2684   3.495  10.002   4.690
   48DIO    H17 2685   3.355  10.088   4.753
   48DIO    H18 2686   3.365  10.246   4.556
   48DIO    H19 2687   3.495  10.147   4.488
   48DIO    H20 2688   3.335  10.077   4.512
   49DIO     F1 2689   8.681  10.290  -0.372
   49DIO     C1 2690   8.603  10.390  -0.419
   49DIO     C2 2691   8.459  10.373  -0.420
   49DIO     C3 2692   8.371  10.479  -0.473
   49DIO     C4 2693   8.436  10.603  -0.521
   49DIO     C5 2694   8.580  10.617  -0.518
   49DIO     F2 2695   8.636  10.733  -0.559
   49DIO     C6 2696   8.664  10.511  -0.467
   49DIO     F3 2697   8.798  10.526  -0.466
   49DIO     C7 2698   8.224  10.463  -0.476
   49DIO     C8 2699   8.147  10.490  -0.600
   49DIO     C9 2700   8.002  10.475  -0.603
   49DIO    C10 2701   7.930  10.443  -0.482
   49DIO    C11 2702   8.002  10.409  -0.361
   49DIO    C12 2703   8.146  10.421  -0.358
   49DIO     F4 2704   8.211  10.394  -0.243
   49DIO     O1 2705   7.798  10.407  -0.497
   49DIO    C13 2706   7.703  10.440  -0.400
   49DIO     O2 2707   7.702  10.524  -0.307
   49DIO    C14 2708   7.574  10.374  -0.423
   49DIO    C15 2709   7.508  10.376  -0.555
   49DIO     F5 2710   7.570  10.431  -0.662
   49DIO    C16 2711   7.377  10.317  -0.578
   49DIO    C17 2712   7.301  10.260  -0.468
   49DIO    C18 2713   7.370  10.241  -0.340
   49DIO    C19 2714   7.501  10.299  -0.318
   49DIO     F6 2715   7.564  10.266  -0.203
   49DIO    C20 2716   7.160  10.208  -0.487
   49DIO     O3 2717   7.091  10.272  -0.595
   49DIO    C21 2718   7.047  10.403  -0.563
   49DIO    C22 2719   6.958  10.402  -0.439
   49DIO    C23 2720   7.039  10.336  -0.328
   49DIO     O4 2721   7.083  10.207  -0.367
   49DIO    C24 2722   6.825  10.326  -0.460
   49DIO    C25 2723   6.735  10.380  -0.572
   49DIO    C26 2724   6.696  10.526  -0.555
   49DIO     H1 2725   8.417  10.281  -0.382
   49DIO     H2 2726   8.375  10.687  -0.551
   49DIO     H3 2727   8.199  10.516  -0.691
   49DIO     H4 2728   7.947  10.486  -0.696
   49DIO     H5 2729   7.948  10.380  -0.272
   49DIO     H6 2730   7.339  10.314  -0.680
   49DIO     H7 2731   7.327  10.180  -0.262
   49DIO     H8 2732   7.170  10.103  -0.517
   49DIO     H9 2733   7.134  10.468  -0.548
   49DIO    H10 2734   6.994  10.443  -0.650
   49DIO    H11 2735   6.936  10.506  -0.410
   49DIO    H12 2736   6.978  10.325  -0.238
   49DIO    H13 2737   7.125  10.398  -0.300
   49DIO    H14 2738   6.845  10.220  -0.481
   49DIO    H15 2739   6.769  10.329  -0.366
   49DIO    H16 2740   6.782  10.365  -0.670
   49DIO    H17 2741   6.643  10.319  -0.573
   49DIO    H18 2742   6.652  10.544  -0.457
   49DIO    H19 2743   6.783  10.592  -0.567
   49DIO    H20 2744   6.623  10.554  -0.631
   50DIO     F1 2745  10.560   6.053   4.251
   50DIO     C1 2746  10.483   5.957   4.197
   50DIO     C2 2747  10.339   5.966   4.212
   50DIO     C3 2748  10.250   5.861   4.156
   50DIO     C4 2749  10.315   5.750   4.083
   50DIO     C5 2750  10.460   5.744   4.070
   50DIO     F2 2751  10.515   5.644   3.999
   50DIO     C6 2752  10.543   5.847   4.126
   50DIO     F3 2753  10.677   5.840   4.114
   50DIO     C7 2754  10.104   5.868   4.171
   50DIO     C8 2755  10.026   5.751   4.221
   50DIO     C9 2756   9.882   5.757   4.235
   50DIO    C10 2757   9.809   5.875   4.190
   50DIO    C11 2758   9.882   5.993   4.148
   50DIO    C12 2759  10.026   5.988   4.136
   50DIO     F4 2760  10.091   6.098   4.091
   50DIO     O1 2761   9.677   5.883   4.228
   50DIO    C13 2762   9.582   5.943   4.146
   50DIO     O2 2763   9.582   5.971   4.023
   50DIO    C14 2764   9.453   5.963   4.212
   50DIO    C15 2765   9.387   5.854   4.288
   50DIO     F5 2766   9.450   5.736   4.305
   50DIO    C16 2767   9.256   5.869   4.349
   50DIO    C17 2768   9.180   5.993   4.331
   50DIO    C18 2769   9.249   6.107   4.272
   50DIO    C19 2770   9.381   6.092   4.213
   50DIO     F6 2771   9.443   6.205   4.173
   50DIO    C20 2772   9.040   6.006   4.385
   50DIO     O3 2773   8.970   5.882   4.396
   50DIO    C21 2774   8.926   5.832   4.270
   50DIO    C22 2775   8.837   5.933   4.199
   50DIO    C23 2776   8.918   6.062   4.188
   50DIO     O4 2777   8.962   6.105   4.316
   50DIO    C24 2778   8.705   5.960   4.273
   50DIO    C25 2779   8.614   5.838   4.294
   50DIO    C26 2780   8.576   5.767   4.165
   50DIO     H1 2781  10.296   6.050   4.265
   50DIO     H2 2782  10.255   5.676   4.031
   50DIO     H3 2783  10.078   5.662   4.252
   50DIO     H4 2784   9.827   5.676   4.279
   50DIO     H5 2785   9.827   6.082   4.120
   50DIO     H6 2786   9.218   5.788   4.410
   50DIO     H7 2787   9.206   6.206   4.277
   50DIO     H8 2788   9.049   6.043   4.487
   50DIO     H9 2789   9.013   5.806   4.208
   50DIO    H10 2790   8.874   5.738   4.288
   50DIO    H11 2791   8.815   5.897   4.098
   50DIO    H12 2792   8.857   6.142   4.145
   50DIO    H13 2793   9.004   6.049   4.121
   50DIO    H14 2794   8.725   6.005   4.371
   50DIO    H15 2795   8.648   6.035   4.216
   50DIO    H16 2796   8.661   5.767   4.363
   50DIO    H17 2797   8.522   5.872   4.344
   50DIO    H18 2798   8.532   5.837   4.093
   50DIO    H19 2799   8.662   5.719   4.119
   50DIO    H20 2800   8.502   5.689   4.186
   51DIO     F1 2801   9.098   7.583   3.301
   51DIO     C1 2802   9.020   7.511   3.383
   51DIO     C2 2803   8.876   7.527   3.378
   51DIO     C3 2804   8.787   7.451   3.469
   51DIO     C4 2805   8.853   7.356   3.562
   51DIO     C5 2806   8.997   7.342   3.566
   51DIO     F2 2807   9.052   7.252   3.649
   51DIO     C6 2808   9.081   7.418   3.476
   51DIO     F3 2809   9.214   7.405   3.481
   51DIO     C7 2810   8.641   7.466   3.466
   51DIO     C8 2811   8.564   7.491   3.589
   51DIO     C9 2812   8.419   7.506   3.586
   51DIO    C10 2813   8.346   7.487   3.462
   51DIO    C11 2814   8.419   7.470   3.338
   51DIO    C12 2815   8.563   7.457   3.340
   51DIO     F4 2816   8.628   7.436   3.224
   51DIO     O1 2817   8.214   7.526   3.462
   51DIO    C13 2818   8.120   7.457   3.386
   51DIO     O2 2819   8.119   7.343   3.334
   51DIO    C14 2820   7.990   7.527   3.381
   51DIO    C15 2821   7.924   7.578   3.503
   51DIO     F5 2822   7.987   7.570   3.622
   51DIO    C16 2823   7.793   7.641   3.500
   51DIO    C17 2824   7.718   7.649   3.376
   51DIO    C18 2825   7.786   7.615   3.252
   51DIO    C19 2826   7.918   7.554   3.255
   51DIO     F6 2827   7.980   7.538   3.136
   51DIO    C20 2828   7.577   7.704   3.374
   51DIO     O3 2829   7.507   7.690   3.498
   51DIO    C21 2830   7.463   7.556   3.521
   51DIO    C22 2831   7.375   7.507   3.407
   51DIO    C23 2832   7.455   7.523   3.278
   51DIO     O4 2833   7.500   7.657   3.263
   51DIO    C24 2834   7.242   7.585   3.396
   51DIO    C25 2835   7.151   7.581   3.519
   51DIO    C26 2836   7.113   7.441   3.563
   51DIO     H1 2837   8.833   7.596   3.306
   51DIO     H2 2838   8.792   7.291   3.624
   51DIO     H3 2839   8.615   7.504   3.684
   51DIO     H4 2840   8.364   7.533   3.676
   51DIO     H5 2841   8.364   7.461   3.245
   51DIO     H6 2842   7.755   7.684   3.592
   51DIO     H7 2843   7.743   7.640   3.156
   51DIO     H8 2844   7.587   7.812   3.359
   51DIO     H9 2845   7.550   7.490   3.533
   51DIO    H10 2846   7.411   7.554   3.617
   51DIO    H11 2847   7.352   7.401   3.422
   51DIO    H12 2848   7.394   7.498   3.191
   51DIO    H13 2849   7.541   7.455   3.278
   51DIO    H14 2850   7.262   7.691   3.373
   51DIO    H15 2851   7.185   7.545   3.311
   51DIO    H16 2852   7.198   7.634   3.603
   51DIO    H17 2853   7.059   7.637   3.497
   51DIO    H18 2854   7.069   7.384   3.480
   51DIO    H19 2855   7.199   7.385   3.600
   51DIO    H20 2856   7.039   7.445   3.644
   52DIO     F1 2857   6.054   1.805  10.673
   52DIO     C1 2858   5.976   1.890  10.603
   52DIO     C2 2859   5.832   1.873  10.606
   52DIO     C3 2860   5.743   1.963  10.529
   52DIO     C4 2861   5.809   2.071  10.452
   52DIO     C5 2862   5.953   2.086  10.451
   52DIO     F2 2863   6.009   2.188  10.383
   52DIO     C6 2864   6.037   1.996  10.526
   52DIO     F3 2865   6.171   2.010  10.524
   52DIO     C7 2866   5.597   1.947  10.529
   52DIO     C8 2867   5.520   1.943  10.403
   52DIO     C9 2868   5.375   1.927  10.403
   52DIO    C10 2869   5.303   1.926  10.529
   52DIO    C11 2870   5.375   1.923  10.655
   52DIO    C12 2871   5.519   1.935  10.654
   52DIO     F4 2872   5.584   1.937  10.772
   52DIO     O1 2873   5.170   1.888  10.523
   52DIO    C13 2874   5.076   1.943  10.609
   52DIO     O2 2875   5.075   2.047  10.679
   52DIO    C14 2876   4.947   1.874  10.603
   52DIO    C15 2877   4.880   1.843  10.474
   52DIO     F5 2878   4.943   1.870  10.357
   52DIO    C16 2879   4.750   1.781  10.466
   52DIO    C17 2880   4.674   1.752  10.587
   52DIO    C18 2881   4.743   1.765  10.715
   52DIO    C19 2882   4.874   1.826  10.723
   52DIO     F6 2883   4.937   1.822  10.842
   52DIO    C20 2884   4.533   1.697  10.581
   52DIO     O3 2885   4.463   1.732  10.461
   52DIO    C21 2886   4.420   1.868  10.460
   52DIO    C22 2887   4.331   1.897  10.580
   52DIO    C23 2888   4.412   1.861  10.704
   52DIO     O4 2889   4.456   1.725  10.698
   52DIO    C24 2890   4.198   1.818  10.578
   52DIO    C25 2891   4.107   1.843  10.457
   52DIO    C26 2892   4.069   1.989  10.437
   52DIO     H1 2893   5.790   1.793  10.665
   52DIO     H2 2894   5.748   2.146  10.402
   52DIO     H3 2895   5.571   1.946  10.308
   52DIO     H4 2896   5.320   1.916  10.311
   52DIO     H5 2897   5.321   1.916  10.748
   52DIO     H6 2898   4.712   1.753  10.369
   52DIO     H7 2899   4.700   1.725  10.806
   52DIO     H8 2900   4.543   1.588  10.578
   52DIO     H9 2901   4.506   1.934  10.458
   52DIO    H10 2902   4.367   1.885  10.365
   52DIO    H11 2903   4.308   2.004  10.583
   52DIO    H12 2904   4.351   1.871  10.795
   52DIO    H13 2905   4.498   1.927  10.716
   52DIO    H14 2906   4.218   1.710  10.584
   52DIO    H15 2907   4.142   1.844  10.669
   52DIO    H16 2908   4.155   1.805  10.366
   52DIO    H17 2909   4.016   1.784  10.470
   52DIO    H18 2910   4.025   2.030  10.528
   52DIO    H19 2911   4.156   2.049  10.409
   52DIO    H20 2912   3.995   1.997  10.357
   53DIO     F1 2913   2.845   3.900   8.187
   53DIO     C1 2914   2.767   3.987   8.255
   53DIO     C2 2915   2.623   3.981   8.239
   53DIO     C3 2916   2.534   4.076   8.309
   53DIO     C4 2917   2.600   4.176   8.397
   53DIO     C5 2918   2.744   4.180   8.411
   53DIO     F2 2919   2.800   4.269   8.496
   53DIO     C6 2920   2.828   4.086   8.341
   53DIO     F3 2921   2.962   4.091   8.354
   53DIO     C7 2922   2.388   4.072   8.294
   53DIO     C8 2923   2.311   4.194   8.261
   53DIO     C9 2924   2.166   4.190   8.246
   53DIO    C10 2925   2.094   4.068   8.273
   53DIO    C11 2926   2.166   3.944   8.298
   53DIO    C12 2927   2.310   3.948   8.310
   53DIO     F4 2928   2.375   3.833   8.339
   53DIO     O1 2929   1.961   4.065   8.234
   53DIO    C13 2930   1.867   3.994   8.308
   53DIO     O2 2931   1.866   3.949   8.425
   53DIO    C14 2932   1.738   3.984   8.239
   53DIO    C15 2933   1.671   4.102   8.180
   53DIO     F5 2934   1.734   4.222   8.180
   53DIO    C16 2935   1.541   4.096   8.117
   53DIO    C17 2936   1.465   3.971   8.117
   53DIO    C18 2937   1.534   3.850   8.159
   53DIO    C19 2938   1.665   3.856   8.220
   53DIO     F6 2939   1.728   3.739   8.243
   53DIO    C20 2940   1.324   3.965   8.062
   53DIO     O3 2941   1.254   4.090   8.069
   53DIO    C21 2942   1.211   4.122   8.200
   53DIO    C22 2943   1.122   4.011   8.256
   53DIO    C23 2944   1.203   3.882   8.249
   53DIO     O4 2945   1.247   3.857   8.116
   53DIO    C24 2946   0.989   3.995   8.179
   53DIO    C25 2947   0.898   4.119   8.176
   53DIO    C26 2948   0.860   4.171   8.313
   53DIO     H1 2949   2.581   3.905   8.174
   53DIO     H2 2950   2.539   4.241   8.459
   53DIO     H3 2951   2.362   4.287   8.242
   53DIO     H4 2952   2.111   4.277   8.214
   53DIO     H5 2953   2.112   3.852   8.313
   53DIO     H6 2954   1.503   4.184   8.068
   53DIO     H7 2955   1.491   3.752   8.140
   53DIO     H8 2956   1.334   3.944   7.955
   53DIO     H9 2957   1.297   4.138   8.265
   53DIO    H10 2958   1.158   4.217   8.196
   53DIO    H11 2959   1.099   4.032   8.362
   53DIO    H12 2960   1.142   3.796   8.280
   53DIO    H13 2961   1.289   3.885   8.317
   53DIO    H14 2962   1.009   3.965   8.076
   53DIO    H15 2963   0.933   3.913   8.224
   53DIO    H16 2964   0.946   4.199   8.118
   53DIO    H17 2965   0.807   4.092   8.121
   53DIO    H18 2966   0.816   4.091   8.375
   53DIO    H19 2967   0.947   4.212   8.366
   53DIO    H20 2968   0.786   4.251   8.304
   54DIO     F1 2969   6.085   4.982   0.232
   54DIO     C1 2970   6.007   5.088   0.203
   54DIO     C2 2971   5.863   5.072   0.198
   54DIO     C3 2972   5.774   5.185   0.164
   54DIO     C4 2973   5.840   5.315   0.137
   54DIO     C5 2974   5.984   5.329   0.142
   54DIO     F2 2975   6.040   5.450   0.121
   54DIO     C6 2976   6.068   5.216   0.175
   54DIO     F3 2977   6.202   5.230   0.178
   54DIO     C7 2978   5.628   5.170   0.158
   54DIO     C8 2979   5.551   5.217   0.040
   54DIO     C9 2980   5.406   5.203   0.035
   54DIO    C10 2981   5.334   5.152   0.149
   54DIO    C11 2982   5.406   5.098   0.263
   54DIO    C12 2983   5.550   5.110   0.268
   54DIO     F4 2984   5.615   5.064   0.377
   54DIO     O1 2985   5.201   5.119   0.128
   54DIO    C13 2986   5.107   5.135   0.229
   54DIO     O2 2987   5.106   5.202   0.335
   54DIO    C14 2988   4.978   5.074   0.196
   54DIO    C15 2989   4.911   5.097   0.066
   54DIO     F5 2990   4.974   5.169  -0.030
   54DIO    C16 2991   4.781   5.043   0.033
   54DIO    C17 2992   4.705   4.968   0.133
   54DIO    C18 2993   4.774   4.929   0.255
   54DIO    C19 2994   4.905   4.982   0.287
   54DIO     F6 2995   4.968   4.930   0.395
   54DIO    C20 2996   4.564   4.921   0.105
   54DIO     O3 2997   4.494   5.001   0.009
   54DIO    C21 2998   4.451   5.126   0.062
   54DIO    C22 2999   4.362   5.104   0.184
   54DIO    C23 3000   4.443   5.021   0.284
   54DIO     O4 3001   4.487   4.899   0.224
   54DIO    C24 3002   4.229   5.033   0.151
   54DIO    C25 3003   4.138   5.104   0.050
   54DIO    C26 3004   4.100   5.245   0.091
   54DIO     H1 3005   5.821   4.975   0.220
   54DIO     H2 3006   5.779   5.404   0.121
   54DIO     H3 3007   5.602   5.258  -0.045
   54DIO     H4 3008   5.351   5.229  -0.055
   54DIO     H5 3009   5.352   5.055   0.346
   54DIO     H6 3010   4.743   5.057  -0.067
   54DIO     H7 3011   4.731   4.856   0.322
   54DIO     H8 3012   4.574   4.822   0.058
   54DIO     H9 3013   4.537   5.187   0.088
   54DIO    H10 3014   4.398   5.179  -0.017
   54DIO    H11 3015   4.339   5.201   0.230
   54DIO    H12 3016   4.382   4.994   0.371
   54DIO    H13 3017   4.529   5.077   0.321
   54DIO    H14 3018   4.249   4.932   0.113
   54DIO    H15 3019   4.173   5.020   0.244
   54DIO    H16 3020   4.186   5.106  -0.049
   54DIO    H17 3021   4.047   5.045   0.039
   54DIO    H18 3022   4.056   5.247   0.191
   54DIO    H19 3023   4.187   5.312   0.089
   54DIO    H20 3024   4.026   5.286   0.020
   55DIO     F1 3025   1.388   9.685   9.315
   55DIO     C1 3026   1.310   9.737   9.412
   55DIO     C2 3027   1.166   9.737   9.395
   55DIO     C3 3028   1.077   9.795   9.498
   55DIO     C4 3029   1.143   9.850   9.619
   55DIO     C5 3030   1.287   9.848   9.633
   55DIO     F2 3031   1.342   9.895   9.747
   55DIO     C6 3032   1.371   9.791   9.531
   55DIO     F3 3033   1.504   9.791   9.545
   55DIO     C7 3034   0.931   9.798   9.482
   55DIO     C8 3035   0.854   9.923   9.502
   55DIO     C9 3036   0.709   9.925   9.487
   55DIO    C10 3037   0.636   9.802   9.462
   55DIO    C11 3038   0.709   9.680   9.434
   55DIO    C12 3039   0.853   9.678   9.447
   55DIO     F4 3040   0.918   9.561   9.426
   55DIO     O1 3041   0.504   9.816   9.425
   55DIO    C13 3042   0.410   9.721   9.463
   55DIO     O2 3043   0.409   9.632   9.552
   55DIO    C14 3044   0.280   9.740   9.396
   55DIO    C15 3045   0.214   9.872   9.390
   55DIO     F5 3046   0.277   9.981   9.439
   55DIO    C16 3047   0.083   9.892   9.331
   55DIO    C17 3048   0.008   9.778   9.279
   55DIO    C18 3049   0.076   9.650   9.268
   55DIO    C19 3050   0.208   9.631   9.326
   55DIO     F6 3051   0.270   9.515   9.299
   55DIO    C20 3052  -0.133   9.795   9.227
   55DIO     O3 3053  -0.203   9.907   9.284
   55DIO    C21 3054  -0.247   9.882   9.417
   55DIO    C22 3055  -0.335   9.758   9.423
   55DIO    C23 3056  -0.255   9.643   9.363
   55DIO     O4 3057  -0.210   9.675   9.232
   55DIO    C24 3058  -0.468   9.775   9.346
   55DIO    C25 3059  -0.559   9.889   9.393
   55DIO    C26 3060  -0.597   9.880   9.540
   55DIO     H1 3061   1.123   9.694   9.305
   55DIO     H2 3062   1.082   9.885   9.702
   55DIO     H3 3063   0.905  10.016   9.523
   55DIO     H4 3064   0.654  10.018   9.493
   55DIO     H5 3065   0.654   9.589   9.410
   55DIO     H6 3066   0.045   9.993   9.322
   55DIO     H7 3067   0.033   9.569   9.211
   55DIO     H8 3068  -0.123   9.819   9.120
   55DIO     H9 3069  -0.160   9.870   9.483
   55DIO    H10 3070  -0.299   9.971   9.453
   55DIO    H11 3071  -0.358   9.734   9.528
   55DIO    H12 3072  -0.316   9.552   9.357
   55DIO    H13 3073  -0.169   9.618   9.427
   55DIO    H14 3074  -0.448   9.790   9.239
   55DIO    H15 3075  -0.525   9.681   9.354
   55DIO    H16 3076  -0.512   9.986   9.374
   55DIO    H17 3077  -0.651   9.887   9.333
   55DIO    H18 3078  -0.641   9.783   9.564
   55DIO    H19 3079  -0.511   9.896   9.605
   55DIO    H20 3080  -0.671   9.957   9.564
   56DIO     F1 3081   4.306   7.213   0.194
   56DIO     C1 3082   4.228   7.305   0.254
   56DIO     C2 3083   4.084   7.298   0.239
   56DIO     C3 3084   3.995   7.399   0.301
   56DIO     C4 3085   4.061   7.505   0.381
   56DIO     C5 3086   4.205   7.510   0.394
   56DIO     F2 3087   4.260   7.606   0.471
   56DIO     C6 3088   4.289   7.411   0.332
   56DIO     F3 3089   4.422   7.418   0.344
   56DIO     C7 3090   3.849   7.393   0.286
   56DIO     C8 3091   3.772   7.512   0.243
   56DIO     C9 3092   3.627   7.507   0.229
   56DIO    C10 3093   3.554   7.387   0.266
   56DIO    C11 3094   3.627   7.266   0.301
   56DIO    C12 3095   3.771   7.271   0.313
   56DIO     F4 3096   3.836   7.159   0.351
   56DIO     O1 3097   3.422   7.381   0.227
   56DIO    C13 3098   3.328   7.316   0.306
   56DIO     O2 3099   3.327   7.282   0.427
   56DIO    C14 3100   3.199   7.301   0.238
   56DIO    C15 3101   3.132   7.414   0.170
   56DIO     F5 3102   3.195   7.533   0.160
   56DIO    C16 3103   3.001   7.402   0.108
   56DIO    C17 3104   2.926   7.278   0.118
   56DIO    C18 3105   2.994   7.160   0.170
   56DIO    C19 3106   3.126   7.172   0.230
   56DIO     F6 3107   3.189   7.057   0.263
   56DIO    C20 3108   2.785   7.268   0.064
   56DIO     O3 3109   2.715   7.393   0.060
   56DIO    C21 3110   2.672   7.435   0.189
   56DIO    C22 3111   2.583   7.330   0.254
   56DIO    C23 3112   2.663   7.200   0.257
   56DIO     O4 3113   2.708   7.165   0.127
   56DIO    C24 3114   2.450   7.307   0.178
   56DIO    C25 3115   2.359   7.430   0.165
   56DIO    C26 3116   2.321   7.493   0.297
   56DIO     H1 3117   4.041   7.217   0.181
   56DIO     H2 3118   4.000   7.576   0.436
   56DIO     H3 3119   3.823   7.604   0.217
   56DIO     H4 3120   3.572   7.591   0.189
   56DIO     H5 3121   3.572   7.176   0.324
   56DIO     H6 3122   2.963   7.487   0.052
   56DIO     H7 3123   2.952   7.062   0.159
   56DIO     H8 3124   2.795   7.237  -0.041
   56DIO     H9 3125   2.758   7.457   0.252
   56DIO    H10 3126   2.619   7.530   0.177
   56DIO    H11 3127   2.560   7.360   0.357
   56DIO    H12 3128   2.602   7.117   0.295
   56DIO    H13 3129   2.750   7.209   0.325
   56DIO    H14 3130   2.470   7.269   0.078
   56DIO    H15 3131   2.393   7.229   0.230
   56DIO    H16 3132   2.407   7.505   0.100
   56DIO    H17 3133   2.267   7.399   0.113
   56DIO    H18 3134   2.277   7.420   0.365
   56DIO    H19 3135   2.407   7.539   0.347
   56DIO    H20 3136   2.247   7.573   0.281
   57DIO     F1 3137   9.461   1.147   4.199
   57DIO     C1 3138   9.384   1.256   4.205
   57DIO     C2 3139   9.239   1.242   4.196
   57DIO     C3 3140   9.151   1.361   4.199
   57DIO     C4 3141   9.216   1.493   4.215
   57DIO     C5 3142   9.360   1.504   4.224
   57DIO     F2 3143   9.416   1.625   4.243
   57DIO     C6 3144   9.444   1.387   4.220
   57DIO     F3 3145   9.578   1.399   4.227
   57DIO     C7 3146   9.004   1.349   4.189
   57DIO     C8 3147   8.927   1.430   4.092
   57DIO     C9 3148   8.782   1.419   4.082
   57DIO    C10 3149   8.710   1.333   4.174
   57DIO    C11 3150   8.782   1.246   4.265
   57DIO    C12 3151   8.926   1.256   4.273
   57DIO     F4 3152   8.991   1.178   4.362
   57DIO     O1 3153   8.578   1.309   4.144
   57DIO    C13 3154   8.483   1.292   4.245
   57DIO     O2 3155   8.482   1.322   4.367
   57DIO    C14 3156   8.354   1.245   4.194
   57DIO    C15 3157   8.288   1.309   4.078
   57DIO     F5 3158   8.350   1.407   4.010
   57DIO    C16 3159   8.157   1.268   4.030
   57DIO    C17 3160   8.081   1.165   4.101
   57DIO    C18 3161   8.150   1.089   4.204
   57DIO    C19 3162   8.282   1.129   4.251
   57DIO     F6 3163   8.344   1.045   4.337
   57DIO    C20 3164   7.940   1.129   4.059
   57DIO     O3 3165   7.871   1.235   3.993
   57DIO    C21 3166   7.827   1.336   4.084
   57DIO    C22 3167   7.738   1.277   4.193
   57DIO    C23 3168   7.819   1.167   4.260
   57DIO     O4 3169   7.863   1.071   4.165
   57DIO    C24 3170   7.605   1.220   4.138
   57DIO    C25 3171   7.515   1.320   4.065
   57DIO    C26 3172   7.476   1.441   4.149
   57DIO     H1 3173   9.197   1.143   4.186
   57DIO     H2 3174   9.156   1.582   4.228
   57DIO     H3 3175   8.979   1.496   4.024
   57DIO     H4 3176   8.727   1.472   4.006
   57DIO     H5 3177   8.728   1.179   4.330
   57DIO     H6 3178   8.119   1.313   3.939
   57DIO     H7 3179   8.107   0.998   4.244
   57DIO     H8 3180   7.950   1.050   3.983
   57DIO     H9 3181   7.914   1.387   4.128
   57DIO    H10 3182   7.774   1.413   4.026
   57DIO    H11 3183   7.716   1.355   4.267
   57DIO    H12 3184   7.758   1.114   4.334
   57DIO    H13 3185   7.905   1.208   4.314
   57DIO    H14 3186   7.625   1.136   4.070
   57DIO    H15 3187   7.549   1.178   4.223
   57DIO    H16 3188   7.562   1.353   3.972
   57DIO    H17 3189   7.423   1.267   4.036
   57DIO    H18 3190   7.432   1.411   4.244
   57DIO    H19 3191   7.563   1.505   4.169
   57DIO    H20 3192   7.403   1.501   4.095
   58DIO     F1 3193   9.440  10.525   3.656
   58DIO     C1 3194   9.363  10.635   3.670
   58DIO     C2 3195   9.219  10.621   3.660
   58DIO     C3 3196   9.130  10.739   3.673
   58DIO     C4 3197   9.195  10.869   3.699
   58DIO     C5 3198   9.340  10.880   3.709
   58DIO     F2 3199   9.395  10.999   3.737
   58DIO     C6 3200   9.423  10.763   3.695
   58DIO     F3 3201   9.557  10.775   3.704
   58DIO     C7 3202   8.983  10.728   3.662
   58DIO     C8 3203   8.906  10.817   3.572
   58DIO     C9 3204   8.762  10.806   3.561
   58DIO    C10 3205   8.689  10.714   3.646
   58DIO    C11 3206   8.762  10.620   3.730
   58DIO    C12 3207   8.906  10.629   3.739
   58DIO     F4 3208   8.971  10.544   3.821
   58DIO     O1 3209   8.557  10.692   3.614
   58DIO    C13 3210   8.462  10.667   3.713
   58DIO     O2 3211   8.461  10.687   3.837
   58DIO    C14 3212   8.333  10.624   3.658
   58DIO    C15 3213   8.267  10.696   3.548
   58DIO     F5 3214   8.330  10.800   3.488
   58DIO    C16 3215   8.136  10.659   3.497
   58DIO    C17 3216   8.060  10.551   3.559
   58DIO    C18 3217   8.129  10.467   3.657
   58DIO    C19 3218   8.261  10.504   3.706
   58DIO     F6 3219   8.323  10.414   3.785
   58DIO    C20 3220   7.920  10.519   3.515
   58DIO     O3 3221   7.850  10.630   3.458
   58DIO    C21 3222   7.806  10.724   3.556
   58DIO    C22 3223   7.717  10.656   3.660
   58DIO    C23 3224   7.798  10.541   3.719
   58DIO     O4 3225   7.842  10.453   3.616
   58DIO    C24 3226   7.585  10.604   3.601
   58DIO    C25 3227   7.494  10.709   3.536
   58DIO    C26 3228   7.455  10.823   3.629
   58DIO     H1 3229   9.176  10.523   3.643
   58DIO     H2 3230   9.135  10.957   3.719
   58DIO     H3 3231   8.958  10.888   3.509
   58DIO     H4 3232   8.707  10.865   3.489
   58DIO     H5 3233   8.707  10.547   3.789
   58DIO     H6 3234   8.098  10.711   3.410
   58DIO     H7 3235   8.086  10.374   3.690
   58DIO     H8 3236   7.929  10.446   3.433
   58DIO     H9 3237   7.893  10.770   3.604
   58DIO    H10 3238   7.753  10.804   3.504
   58DIO    H11 3239   7.695  10.728   3.740
   58DIO    H12 3240   7.737  10.482   3.788
   58DIO    H13 3241   7.884  10.578   3.775
   58DIO    H14 3242   7.604  10.525   3.527
   58DIO    H15 3243   7.528  10.555   3.682
   58DIO    H16 3244   7.541  10.749   3.446
   58DIO    H17 3245   7.402  10.659   3.503
   58DIO    H18 3246   7.412  10.785   3.722
   58DIO    H19 3247   7.542  10.885   3.654
   58DIO    H20 3248   7.382  10.887   3.580
   59DIO     F1 3249   2.629   4.307   0.754
   59DIO     C1 3250   2.552   4.341   0.650
   59DIO     C2 3251   2.408   4.329   0.661
   59DIO     C3 3252   2.319   4.363   0.548
   59DIO     C4 3253   2.384   4.414   0.425
   59DIO     C5 3254   2.529   4.426   0.416
   59DIO     F2 3255   2.584   4.476   0.304
   59DIO     C6 3256   2.612   4.390   0.528
   59DIO     F3 3257   2.746   4.401   0.519
   59DIO     C7 3258   2.172   4.350   0.557
   59DIO     C8 3259   2.095   4.279   0.453
   59DIO     C9 3260   1.951   4.266   0.461
   59DIO    C10 3261   1.878   4.332   0.568
   59DIO    C11 3262   1.951   4.397   0.676
   59DIO    C12 3263   2.095   4.407   0.669
   59DIO     F4 3264   2.160   4.472   0.767
   59DIO     O1 3265   1.746   4.296   0.583
   59DIO    C13 3266   1.651   4.389   0.626
   59DIO     O2 3267   1.650   4.515   0.630
   59DIO    C14 3268   1.522   4.327   0.658
   59DIO    C15 3269   1.456   4.233   0.566
   59DIO     F5 3270   1.519   4.193   0.453
   59DIO    C16 3271   1.325   4.176   0.593
   59DIO    C17 3272   1.249   4.216   0.711
   59DIO    C18 3273   1.318   4.296   0.811
   59DIO    C19 3274   1.450   4.352   0.785
   59DIO     F6 3275   1.512   4.412   0.888
   59DIO    C20 3276   1.109   4.167   0.734
   59DIO     O3 3277   1.039   4.132   0.614
   59DIO    C21 3278   0.995   4.246   0.541
   59DIO    C22 3279   0.906   4.335   0.626
   59DIO    C23 3280   0.987   4.371   0.751
   59DIO     O4 3281   1.031   4.253   0.818
   59DIO    C24 3282   0.774   4.268   0.667
   59DIO    C25 3283   0.683   4.223   0.552
   59DIO    C26 3284   0.644   4.336   0.457
   59DIO     H1 3285   2.365   4.293   0.754
   59DIO     H2 3286   2.324   4.450   0.343
   59DIO     H3 3287   2.147   4.230   0.371
   59DIO     H4 3288   1.896   4.207   0.389
   59DIO     H5 3289   1.896   4.441   0.758
   59DIO     H6 3290   1.287   4.100   0.525
   59DIO     H7 3291   1.275   4.311   0.910
   59DIO     H8 3292   1.118   4.073   0.790
   59DIO     H9 3293   1.082   4.302   0.504
   59DIO    H10 3294   0.942   4.210   0.452
   59DIO    H11 3295   0.884   4.427   0.572
   59DIO    H12 3296   0.926   4.428   0.822
   59DIO    H13 3297   1.073   4.434   0.725
   59DIO    H14 3298   0.793   4.180   0.730
   59DIO    H15 3299   0.717   4.338   0.730
   59DIO    H16 3300   0.730   4.143   0.495
   59DIO    H17 3301   0.591   4.181   0.595
   59DIO    H18 3302   0.601   4.420   0.512
   59DIO    H19 3303   0.731   4.373   0.401
   59DIO    H20 3304   0.571   4.300   0.385
   60DIO     F1 3305   5.745  10.622   6.809
   60DIO     C1 3306   5.668  10.700   6.886
   60DIO     C2 3307   5.524  10.696   6.869
   60DIO     C3 3308   5.435  10.782   6.950
   60DIO     C4 3309   5.500  10.871   7.049
   60DIO     C5 3310   5.645  10.873   7.064
   60DIO     F2 3311   5.700  10.952   7.158
   60DIO     C6 3312   5.728  10.788   6.983
   60DIO     F3 3313   5.862  10.792   6.996
   60DIO     C7 3314   5.288  10.780   6.934
   60DIO     C8 3315   5.211  10.905   6.916
   60DIO     C9 3316   5.067  10.903   6.901
   60DIO    C10 3317   4.994  10.778   6.914
   60DIO    C11 3318   5.066  10.653   6.924
   60DIO    C12 3319   5.211  10.655   6.936
   60DIO     F4 3320   5.275  10.537   6.951
   60DIO     O1 3321   4.862  10.780   6.875
   60DIO    C13 3322   4.767  10.701   6.939
   60DIO     O2 3323   4.766  10.642   7.051
   60DIO    C14 3324   4.638  10.699   6.869
   60DIO    C15 3325   4.572  10.823   6.825
   60DIO     F5 3326   4.634  10.942   6.839
   60DIO    C16 3327   4.441  10.824   6.762
   60DIO    C17 3328   4.365  10.701   6.747
   60DIO    C18 3329   4.434  10.575   6.774
   60DIO    C19 3330   4.566  10.574   6.836
   60DIO     F6 3331   4.628  10.455   6.845
   60DIO    C20 3332   4.225  10.701   6.692
   60DIO     O3 3333   4.155  10.825   6.713
   60DIO    C21 3334   4.111  10.840   6.848
   60DIO    C22 3335   4.022  10.724   6.890
   60DIO    C23 3336   4.103  10.596   6.868
   60DIO     O4 3337   4.147  10.588   6.732
   60DIO    C24 3338   3.889  10.717   6.812
   60DIO    C25 3339   3.799  10.840   6.823
   60DIO    C26 3340   3.760  10.876   6.965
   60DIO     H1 3341   5.481  10.628   6.796
   60DIO     H2 3342   5.440  10.929   7.118
   60DIO     H3 3343   5.263  11.000   6.909
   60DIO     H4 3344   5.011  10.994   6.879
   60DIO     H5 3345   5.012  10.559   6.928
   60DIO     H6 3346   4.403  10.918   6.724
   60DIO     H7 3347   4.391  10.480   6.744
   60DIO     H8 3348   4.234  10.692   6.583
   60DIO     H9 3349   4.198  10.849   6.914
   60DIO    H10 3350   4.058  10.936   6.855
   60DIO    H11 3351   4.000  10.733   6.997
   60DIO    H12 3352   4.042  10.508   6.888
   60DIO    H13 3353   4.189  10.592   6.935
   60DIO    H14 3354   3.909  10.699   6.705
   60DIO    H15 3355   3.833  10.630   6.847
   60DIO    H16 3356   3.846  10.927   6.775
   60DIO    H17 3357   3.707  10.820   6.766
   60DIO    H18 3358   3.716  10.790   7.017
   60DIO    H19 3359   3.847  10.910   7.023
   60DIO    H20 3360   3.687  10.957   6.965
   61DIO     F1 3361   4.842   1.776   7.690
   61DIO     C1 3362   4.765   1.736   7.792
   61DIO     C2 3363   4.621   1.749   7.782
   61DIO     C3 3364   4.532   1.708   7.893
   61DIO     C4 3365   4.597   1.651   8.013
   61DIO     C5 3366   4.742   1.639   8.021
   61DIO     F2 3367   4.797   1.583   8.130
   61DIO     C6 3368   4.825   1.680   7.911
   61DIO     F3 3369   4.959   1.670   7.920
   61DIO     C7 3370   4.386   1.722   7.885
   61DIO     C8 3371   4.308   1.788   7.992
   61DIO     C9 3372   4.164   1.801   7.985
   61DIO    C10 3373   4.091   1.740   7.875
   61DIO    C11 3374   4.164   1.681   7.763
   61DIO    C12 3375   4.308   1.671   7.770
   61DIO     F4 3376   4.373   1.611   7.668
   61DIO     O1 3377   3.959   1.777   7.861
   61DIO    C13 3378   3.864   1.686   7.813
   61DIO     O2 3379   3.864   1.561   7.803
   61DIO    C14 3380   3.735   1.750   7.784
   61DIO    C15 3381   3.669   1.840   7.882
   61DIO     F5 3382   3.732   1.873   7.996
   61DIO    C16 3383   3.538   1.898   7.858
   61DIO    C17 3384   3.462   1.863   7.738
   61DIO    C18 3385   3.531   1.789   7.633
   61DIO    C19 3386   3.663   1.732   7.657
   61DIO     F6 3387   3.725   1.677   7.550
   61DIO    C20 3388   3.322   1.914   7.717
   61DIO     O3 3389   3.252   1.943   7.839
   61DIO    C21 3390   3.208   1.825   7.906
   61DIO    C22 3391   3.119   1.740   7.816
   61DIO    C23 3392   3.200   1.711   7.689
   61DIO     O4 3393   3.244   1.832   7.629
   61DIO    C24 3394   2.987   1.810   7.779
   61DIO    C25 3395   2.896   1.848   7.896
   61DIO    C26 3396   2.858   1.731   7.985
   61DIO     H1 3397   4.578   1.789   7.691
   61DIO     H2 3398   4.537   1.611   8.093
   61DIO     H3 3399   4.360   1.832   8.077
   61DIO     H4 3400   4.109   1.856   8.059
   61DIO     H5 3401   4.109   1.641   7.679
   61DIO     H6 3402   3.500   1.970   7.929
   61DIO     H7 3403   3.488   1.780   7.534
   61DIO     H8 3404   3.331   2.011   7.666
   61DIO     H9 3405   3.295   1.768   7.940
   61DIO    H10 3406   3.156   1.856   7.997
   61DIO    H11 3407   3.097   1.646   7.866
   61DIO    H12 3408   3.139   1.658   7.616
   61DIO    H13 3409   3.286   1.647   7.712
   61DIO    H14 3410   3.007   1.901   7.721
   61DIO    H15 3411   2.930   1.743   7.712
   61DIO    H16 3412   2.943   1.926   7.957
   61DIO    H17 3413   2.804   1.893   7.856
   61DIO    H18 3414   2.814   1.650   7.926
   61DIO    H19 3415   2.944   1.691   8.039
   61DIO    H20 3416   2.784   1.763   8.059
   62DIO     F1 3417   2.486   5.591  -0.488
   62DIO     C1 3418   2.409   5.674  -0.560
   62DIO     C2 3419   2.265   5.657  -0.557
   62DIO     C3 3420   2.176   5.745  -0.637
   62DIO     C4 3421   2.241   5.850  -0.717
   62DIO     C5 3422   2.386   5.865  -0.719
   62DIO     F2 3423   2.441   5.965  -0.790
   62DIO     C6 3424   2.469   5.778  -0.640
   62DIO     F3 3425   2.603   5.791  -0.643
   62DIO     C7 3426   2.029   5.729  -0.636
   62DIO     C8 3427   1.952   5.720  -0.762
   62DIO     C9 3428   1.808   5.705  -0.761
   62DIO    C10 3429   1.735   5.708  -0.635
   62DIO    C11 3430   1.808   5.709  -0.510
   62DIO    C12 3431   1.952   5.721  -0.511
   62DIO     F4 3432   2.017   5.727  -0.392
   62DIO     O1 3433   1.603   5.669  -0.640
   62DIO    C13 3434   1.508   5.727  -0.556
   62DIO     O2 3435   1.507   5.834  -0.489
   62DIO    C14 3436   1.379   5.658  -0.560
   62DIO    C15 3437   1.313   5.623  -0.688
   62DIO     F5 3438   1.376   5.646  -0.805
   62DIO    C16 3439   1.182   5.560  -0.693
   62DIO    C17 3440   1.106   5.535  -0.571
   62DIO    C18 3441   1.175   5.553  -0.444
   62DIO    C19 3442   1.307   5.614  -0.438
   62DIO     F6 3443   1.369   5.614  -0.319
   62DIO    C20 3444   0.966   5.481  -0.576
   62DIO     O3 3445   0.896   5.512  -0.697
   62DIO    C21 3446   0.852   5.647  -0.703
   62DIO    C22 3447   0.763   5.680  -0.583
   62DIO    C23 3448   0.844   5.648  -0.458
   62DIO     O4 3449   0.888   5.513  -0.460
   62DIO    C24 3450   0.631   5.602  -0.583
   62DIO    C25 3451   0.540   5.622  -0.704
   62DIO    C26 3452   0.501   5.767  -0.729
   62DIO     H1 3453   2.222   5.579  -0.495
   62DIO     H2 3454   2.181   5.924  -0.770
   62DIO     H3 3455   2.004   5.720  -0.857
   62DIO     H4 3456   1.753   5.690  -0.853
   62DIO     H5 3457   1.753   5.705  -0.416
   62DIO     H6 3458   1.144   5.529  -0.790
   62DIO     H7 3459   1.132   5.516  -0.352
   62DIO     H8 3460   0.975   5.372  -0.575
   62DIO     H9 3461   0.939   5.714  -0.706
   62DIO    H10 3462   0.799   5.661  -0.797
   62DIO    H11 3463   0.741   5.788  -0.584
   62DIO    H12 3464   0.783   5.662  -0.368
   62DIO    H13 3465   0.930   5.715  -0.448
   62DIO    H14 3466   0.650   5.494  -0.573
   62DIO    H15 3467   0.574   5.630  -0.493
   62DIO    H16 3468   0.587   5.581  -0.794
   62DIO    H17 3469   0.448   5.564  -0.689
   62DIO    H18 3470   0.458   5.812  -0.639
   62DIO    H19 3471   0.588   5.827  -0.759
   62DIO    H20 3472   0.428   5.773  -0.810
   63DIO     F1 3473   6.334   2.363  -0.411
   63DIO     C1 3474   6.256   2.338  -0.304
   63DIO     C2 3475   6.112   2.349  -0.317
   63DIO     C3 3476   6.023   2.324  -0.201
   63DIO     C4 3477   6.089   2.284  -0.074
   63DIO     C5 3478   6.233   2.273  -0.065
   63DIO     F2 3479   6.288   2.233   0.051
   63DIO     C6 3480   6.317   2.299  -0.179
   63DIO     F3 3481   6.450   2.290  -0.169
   63DIO     C7 3482   5.877   2.337  -0.211
   63DIO     C8 3483   5.800   2.416  -0.113
   63DIO     C9 3484   5.655   2.428  -0.122
   63DIO    C10 3485   5.582   2.353  -0.223
   63DIO    C11 3486   5.655   2.280  -0.326
   63DIO    C12 3487   5.799   2.270  -0.318
   63DIO     F4 3488   5.864   2.197  -0.411
   63DIO     O1 3489   5.450   2.388  -0.242
   63DIO    C13 3490   5.356   2.292  -0.277
   63DIO     O2 3491   5.355   2.166  -0.270
   63DIO    C14 3492   5.226   2.351  -0.314
   63DIO    C15 3493   5.160   2.453  -0.230
   63DIO     F5 3494   5.223   2.502  -0.121
   63DIO    C16 3495   5.029   2.507  -0.261
   63DIO    C17 3496   4.954   2.457  -0.375
   63DIO    C18 3497   5.022   2.369  -0.469
   63DIO    C19 3498   5.154   2.316  -0.438
   63DIO     F6 3499   5.216   2.247  -0.536
   63DIO    C20 3500   4.813   2.504  -0.403
   63DIO     O3 3501   4.743   2.549  -0.286
   63DIO    C21 3502   4.699   2.442  -0.204
   63DIO    C22 3503   4.611   2.346  -0.282
   63DIO    C23 3504   4.691   2.300  -0.403
   63DIO     O4 3505   4.736   2.411  -0.480
   63DIO    C24 3506   4.478   2.410  -0.328
   63DIO    C25 3507   4.387   2.463  -0.217
   63DIO    C26 3508   4.349   2.359  -0.113
   63DIO     H1 3509   6.069   2.377  -0.412
   63DIO     H2 3510   6.028   2.255   0.011
   63DIO     H3 3511   5.851   2.471  -0.035
   63DIO     H4 3512   5.600   2.493  -0.056
   63DIO     H5 3513   5.600   2.229  -0.404
   63DIO     H6 3514   4.991   2.588  -0.200
   63DIO     H7 3515   4.979   2.346  -0.566
   63DIO     H8 3516   4.823   2.593  -0.466
   63DIO     H9 3517   4.786   2.389  -0.162
   63DIO    H10 3518   4.647   2.485  -0.118
   63DIO    H11 3519   4.588   2.258  -0.219
   63DIO    H12 3520   4.630   2.237  -0.468
   63DIO    H13 3521   4.777   2.239  -0.372
   63DIO    H14 3522   4.498   2.492  -0.398
   63DIO    H15 3523   4.421   2.335  -0.385
   63DIO    H16 3524   4.434   2.549  -0.167
   63DIO    H17 3525   4.295   2.502  -0.263
   63DIO    H18 3526   4.305   2.270  -0.160
   63DIO    H19 3527   4.435   2.327  -0.054
   63DIO    H20 3528   4.275   2.401  -0.043
   64DIO     F1 3529   3.599   5.192   0.990
   64DIO     C1 3530   3.521   5.265   1.072
   64DIO     C2 3531   3.377   5.261   1.056
   64DIO     C3 3532   3.288   5.342   1.143
   64DIO     C4 3533   3.354   5.423   1.248
   64DIO     C5 3534   3.498   5.424   1.262
   64DIO     F2 3535   3.553   5.496   1.362
   64DIO     C6 3536   3.582   5.345   1.175
   64DIO     F3 3537   3.716   5.348   1.189
   64DIO     C7 3538   3.142   5.341   1.127
   64DIO     C8 3539   3.065   5.467   1.117
   64DIO     C9 3540   2.920   5.466   1.102
   64DIO    C10 3541   2.847   5.340   1.106
   64DIO    C11 3542   2.920   5.214   1.107
   64DIO    C12 3543   3.064   5.215   1.120
   64DIO     F4 3544   3.129   5.097   1.126
   64DIO     O1 3545   2.715   5.345   1.067
   64DIO    C13 3546   2.621   5.261   1.126
   64DIO     O2 3547   2.620   5.195   1.233
   64DIO    C14 3548   2.492   5.264   1.056
   64DIO    C15 3549   2.425   5.392   1.020
   64DIO     F5 3550   2.488   5.509   1.043
   64DIO    C16 3551   2.295   5.397   0.958
   64DIO    C17 3552   2.219   5.275   0.934
   64DIO    C18 3553   2.288   5.148   0.952
   64DIO    C19 3554   2.419   5.143   1.013
   64DIO     F6 3555   2.482   5.023   1.014
   64DIO    C20 3556   2.078   5.280   0.879
   64DIO     O3 3557   2.008   5.401   0.909
   64DIO    C21 3558   1.965   5.407   1.044
   64DIO    C22 3559   1.876   5.288   1.079
   64DIO    C23 3560   1.957   5.162   1.047
   64DIO     O4 3561   2.001   5.163   0.911
   64DIO    C24 3562   1.743   5.287   1.000
   64DIO    C25 3563   1.652   5.409   1.020
   64DIO    C26 3564   1.614   5.434   1.165
   64DIO     H1 3565   3.334   5.199   0.978
   64DIO     H2 3566   3.293   5.476   1.321
   64DIO     H3 3567   3.116   5.562   1.117
   64DIO     H4 3568   2.865   5.558   1.087
   64DIO     H5 3569   2.866   5.121   1.104
   64DIO     H6 3570   2.256   5.494   0.926
   64DIO     H7 3571   2.245   5.055   0.915
   64DIO     H8 3572   2.088   5.278   0.770
   64DIO     H9 3573   2.051   5.411   1.111
   64DIO    H10 3574   1.912   5.502   1.058
   64DIO    H11 3575   1.853   5.289   1.186
   64DIO    H12 3576   1.895   5.073   1.061
   64DIO    H13 3577   2.043   5.153   1.114
   64DIO    H14 3578   1.763   5.277   0.892
   64DIO    H15 3579   1.687   5.197   1.029
   64DIO    H16 3580   1.700   5.498   0.978
   64DIO    H17 3581   1.561   5.393   0.961
   64DIO    H18 3582   1.570   5.345   1.210
   64DIO    H19 3583   1.700   5.464   1.224
   64DIO    H20 3584   1.540   5.515   1.170
   65DIO     F1 3585   6.598  -0.844   4.750
   65DIO     C1 3586   6.520  -0.753   4.812
   65DIO     C2 3587   6.376  -0.760   4.796
   65DIO     C3 3588   6.288  -0.661   4.861
   65DIO     C4 3589   6.353  -0.556   4.942
   65DIO     C5 3590   6.497  -0.551   4.956
   65DIO     F2 3591   6.553  -0.457   5.035
   65DIO     C6 3592   6.581  -0.649   4.892
   65DIO     F3 3593   6.715  -0.643   4.904
   65DIO     C7 3594   6.141  -0.666   4.845
   65DIO     C8 3595   6.064  -0.546   4.805
   65DIO     C9 3596   5.919  -0.551   4.791
   65DIO    C10 3597   5.847  -0.672   4.825
   65DIO    C11 3598   5.919  -0.793   4.858
   65DIO    C12 3599   6.063  -0.789   4.870
   65DIO     F4 3600   6.128  -0.902   4.905
   65DIO     O1 3601   5.715  -0.677   4.787
   65DIO    C13 3602   5.620  -0.743   4.864
   65DIO     O2 3603   5.619  -0.781   4.984
   65DIO    C14 3604   5.491  -0.757   4.796
   65DIO    C15 3605   5.425  -0.643   4.730
   65DIO     F5 3606   5.487  -0.523   4.723
   65DIO    C16 3607   5.294  -0.653   4.668
   65DIO    C17 3608   5.218  -0.777   4.675
   65DIO    C18 3609   5.287  -0.896   4.724
   65DIO    C19 3610   5.418  -0.886   4.785
   65DIO     F6 3611   5.481  -1.002   4.815
   65DIO    C20 3612   5.077  -0.787   4.621
   65DIO     O3 3613   5.008  -0.662   4.620
   65DIO    C21 3614   4.964  -0.622   4.749
   65DIO    C22 3615   4.875  -0.729   4.812
   65DIO    C23 3616   4.956  -0.859   4.812
   65DIO     O4 3617   5.000  -0.891   4.681
   65DIO    C24 3618   4.742  -0.750   4.736
   65DIO    C25 3619   4.652  -0.627   4.725
   65DIO    C26 3620   4.613  -0.566   4.859
   65DIO     H1 3621   6.334  -0.840   4.736
   65DIO     H2 3622   6.292  -0.487   5.000
   65DIO     H3 3623   6.116  -0.454   4.781
   65DIO     H4 3624   5.864  -0.466   4.753
   65DIO     H5 3625   5.865  -0.884   4.878
   65DIO     H6 3626   5.256  -0.567   4.613
   65DIO     H7 3627   5.244  -0.995   4.711
   65DIO     H8 3628   5.087  -0.815   4.515
   65DIO     H9 3629   5.051  -0.602   4.813
   65DIO    H10 3630   4.911  -0.527   4.739
   65DIO    H11 3631   4.853  -0.701   4.916
   65DIO    H12 3632   4.895  -0.942   4.848
   65DIO    H13 3633   5.042  -0.851   4.880
   65DIO    H14 3634   4.762  -0.786   4.634
   65DIO    H15 3635   4.686  -0.829   4.786
   65DIO    H16 3636   4.699  -0.550   4.662
   65DIO    H17 3637   4.560  -0.656   4.672
   65DIO    H18 3638   4.569  -0.641   4.925
   65DIO    H19 3639   4.700  -0.522   4.909
   65DIO    H20 3640   4.540  -0.487   4.844
   66DIO     F1 3641   8.059   2.392  10.513
   66DIO     C1 3642   7.981   2.457  10.602
   66DIO     C2 3643   7.837   2.455  10.585
   66DIO     C3 3644   7.748   2.527  10.680
   66DIO     C4 3645   7.814   2.597  10.793
   66DIO     C5 3646   7.958   2.597  10.807
   66DIO     F2 3647   8.013   2.659  10.913
   66DIO     C6 3648   8.042   2.527  10.713
   66DIO     F3 3649   8.175   2.529  10.727
   66DIO     C7 3650   7.602   2.527  10.664
   66DIO     C8 3651   7.525   2.654  10.667
   66DIO     C9 3652   7.380   2.654  10.652
   66DIO    C10 3653   7.307   2.529  10.643
   66DIO    C11 3654   7.380   2.403  10.632
   66DIO    C12 3655   7.524   2.403  10.645
   66DIO     F4 3656   7.589   2.285  10.640
   66DIO     O1 3657   7.175   2.537  10.605
   66DIO    C13 3658   7.081   2.448  10.655
   66DIO     O2 3659   7.080   2.372  10.755
   66DIO    C14 3660   6.952   2.458  10.586
   66DIO    C15 3661   6.885   2.588  10.563
   66DIO     F5 3662   6.948   2.703  10.597
   66DIO    C16 3663   6.754   2.600  10.501
   66DIO    C17 3664   6.679   2.480  10.466
   66DIO    C18 3665   6.747   2.352  10.471
   66DIO    C19 3666   6.879   2.341  10.532
   66DIO     F6 3667   6.942   2.222  10.521
   66DIO    C20 3668   6.538   2.490  10.412
   66DIO     O3 3669   6.468   2.608  10.453
   66DIO    C21 3670   6.425   2.601  10.589
   66DIO    C22 3671   6.336   2.479  10.611
   66DIO    C23 3672   6.416   2.357  10.567
   66DIO     O4 3673   6.461   2.371  10.433
   66DIO    C24 3674   6.203   2.486  10.532
   66DIO    C25 3675   6.112   2.605  10.564
   66DIO    C26 3676   6.074   2.616  10.711
   66DIO     H1 3677   7.794   2.400  10.502
   66DIO     H2 3678   7.753   2.643  10.870
   66DIO     H3 3679   7.576   2.748  10.675
   66DIO     H4 3680   7.325   2.747  10.645
   66DIO     H5 3681   7.325   2.311  10.621
   66DIO     H6 3682   6.716   2.699  10.479
   66DIO     H7 3683   6.705   2.264  10.426
   66DIO     H8 3684   6.548   2.500  10.303
   66DIO     H9 3685   6.511   2.599  10.655
   66DIO    H10 3686   6.372   2.694  10.611
   66DIO    H11 3687   6.313   2.470  10.718
   66DIO    H12 3688   6.355   2.267  10.573
   66DIO    H13 3689   6.503   2.342  10.633
   66DIO    H14 3690   6.223   2.486  10.424
   66DIO    H15 3691   6.146   2.394  10.553
   66DIO    H16 3692   6.160   2.699  10.531
   66DIO    H17 3693   6.020   2.595  10.504
   66DIO    H18 3694   6.030   2.523  10.747
   66DIO    H19 3695   6.160   2.641  10.773
   66DIO    H20 3696   6.000   2.696  10.724
   67DIO     F1 3697   6.525   4.076  10.196
   67DIO     C1 3698   6.448   4.113  10.092
   67DIO     C2 3699   6.303   4.100  10.103
   67DIO     C3 3700   6.215   4.138   9.991
   67DIO     C4 3701   6.280   4.191   9.869
   67DIO     C5 3702   6.424   4.203   9.861
   67DIO     F2 3703   6.480   4.256   9.750
   67DIO     C6 3704   6.508   4.165   9.972
   67DIO     F3 3705   6.642   4.176   9.963
   67DIO     C7 3706   6.068   4.124   9.999
   67DIO     C8 3707   5.991   4.055   9.894
   67DIO     C9 3708   5.846   4.043   9.902
   67DIO    C10 3709   5.774   4.106  10.010
   67DIO    C11 3710   5.846   4.168  10.120
   67DIO    C12 3711   5.990   4.179  10.113
   67DIO     F4 3712   6.055   4.241  10.213
   67DIO     O1 3713   5.642   4.070  10.024
   67DIO    C13 3714   5.547   4.162  10.070
   67DIO     O2 3715   5.546   4.288  10.076
   67DIO    C14 3716   5.418   4.099  10.100
   67DIO    C15 3717   5.352   4.007  10.006
   67DIO     F5 3718   5.414   3.970   9.892
   67DIO    C16 3719   5.221   3.949  10.031
   67DIO    C17 3720   5.145   3.987  10.150
   67DIO    C18 3721   5.214   4.064  10.253
   67DIO    C19 3722   5.346   4.121  10.228
   67DIO     F6 3723   5.408   4.179  10.332
   67DIO    C20 3724   5.004   3.937  10.172
   67DIO     O3 3725   4.935   3.905  10.052
   67DIO    C21 3726   4.891   4.020   9.981
   67DIO    C22 3727   4.802   4.108  10.069
   67DIO    C23 3728   4.883   4.141  10.194
   67DIO     O4 3729   4.927   4.021  10.259
   67DIO    C24 3730   4.669   4.039  10.108
   67DIO    C25 3731   4.579   3.998   9.991
   67DIO    C26 3732   4.540   4.113   9.900
   67DIO     H1 3733   6.261   4.062  10.195
   67DIO     H2 3734   6.220   4.229   9.788
   67DIO     H3 3735   6.043   4.009   9.811
   67DIO     H4 3736   5.791   3.985   9.829
   67DIO     H5 3737   5.792   4.211  10.203
   67DIO     H6 3738   5.183   3.875   9.962
   67DIO     H7 3739   5.171   4.077  10.351
   67DIO     H8 3740   5.014   3.842  10.226
   67DIO     H9 3741   4.978   4.077   9.945
   67DIO    H10 3742   4.838   3.987   9.891
   67DIO    H11 3743   4.780   4.201  10.016
   67DIO    H12 3744   4.822   4.196  10.266
   67DIO    H13 3745   4.969   4.204  10.170
   67DIO    H14 3746   4.689   3.950  10.168
   67DIO    H15 3747   4.613   4.108  10.172
   67DIO    H16 3748   4.626   3.918   9.933
   67DIO    H17 3749   4.487   3.954  10.033
   67DIO    H18 3750   4.496   4.195   9.956
   67DIO    H19 3751   4.627   4.150   9.844
   67DIO    H20 3752   4.467   4.079   9.826
   68DIO     F1 3753   7.474   8.604   8.485
   68DIO     C1 3754   7.396   8.694   8.421
   68DIO     C2 3755   7.252   8.677   8.423
   68DIO     C3 3756   7.163   8.772   8.352
   68DIO     C4 3757   7.229   8.886   8.283
   68DIO     C5 3758   7.373   8.900   8.283
   68DIO     F2 3759   7.429   9.007   8.223
   68DIO     C6 3760   7.457   8.805   8.352
   68DIO     F3 3761   7.591   8.820   8.351
   68DIO     C7 3762   7.017   8.756   8.352
   68DIO     C8 3763   6.940   8.761   8.225
   68DIO     C9 3764   6.795   8.746   8.225
   68DIO    C10 3765   6.723   8.736   8.350
   68DIO    C11 3766   6.795   8.723   8.475
   68DIO    C12 3767   6.939   8.736   8.476
   68DIO     F4 3768   7.004   8.730   8.594
   68DIO     O1 3769   6.590   8.698   8.341
   68DIO    C13 3770   6.496   8.747   8.431
   68DIO     O2 3771   6.495   8.846   8.508
   68DIO    C14 3772   6.367   8.678   8.420
   68DIO    C15 3773   6.301   8.656   8.289
   68DIO     F5 3774   6.363   8.692   8.175
   68DIO    C16 3775   6.170   8.595   8.277
   68DIO    C17 3776   6.094   8.558   8.396
   68DIO    C18 3777   6.163   8.562   8.525
   68DIO    C19 3778   6.294   8.622   8.536
   68DIO     F6 3779   6.357   8.610   8.656
   68DIO    C20 3780   5.953   8.504   8.386
   68DIO     O3 3781   5.884   8.547   8.268
   68DIO    C21 3782   5.840   8.682   8.277
   68DIO    C22 3783   5.751   8.703   8.399
   68DIO    C23 3784   5.832   8.658   8.521
   68DIO     O4 3785   5.876   8.523   8.505
   68DIO    C24 3786   5.618   8.624   8.392
   68DIO    C25 3787   5.528   8.657   8.273
   68DIO    C26 3788   5.489   8.804   8.263
   68DIO     H1 3789   7.210   8.593   8.477
   68DIO     H2 3790   7.168   8.964   8.238
   68DIO     H3 3791   6.991   8.770   8.131
   68DIO     H4 3792   6.740   8.740   8.132
   68DIO     H5 3793   6.741   8.711   8.568
   68DIO     H6 3794   6.132   8.574   8.178
   68DIO     H7 3795   6.120   8.515   8.613
   68DIO     H8 3796   5.963   8.395   8.375
   68DIO     H9 3797   5.927   8.749   8.280
   68DIO    H10 3798   5.787   8.706   8.184
   68DIO    H11 3799   5.728   8.810   8.409
   68DIO    H12 3800   5.771   8.662   8.611
   68DIO    H13 3801   5.918   8.724   8.537
   68DIO    H14 3802   5.638   8.516   8.390
   68DIO    H15 3803   5.562   8.644   8.484
   68DIO    H16 3804   5.575   8.626   8.179
   68DIO    H17 3805   5.436   8.598   8.282
   68DIO    H18 3806   5.445   8.840   8.357
   68DIO    H19 3807   5.576   8.867   8.239
   68DIO    H20 3808   5.415   8.818   8.183
   69DIO     F1 3809   5.856   1.316   2.791
   69DIO     C1 3810   5.778   1.259   2.885
   69DIO     C2 3811   5.634   1.274   2.877
   69DIO     C3 3812   5.545   1.215   2.980
   69DIO     C4 3813   5.611   1.138   3.089
   69DIO     C5 3814   5.755   1.125   3.094
   69DIO     F2 3815   5.811   1.051   3.192
   69DIO     C6 3816   5.839   1.184   2.993
   69DIO     F3 3817   5.973   1.172   3.000
   69DIO     C7 3818   5.399   1.230   2.974
   69DIO     C8 3819   5.322   1.276   3.092
   69DIO     C9 3820   5.177   1.290   3.086
   69DIO    C10 3821   5.105   1.249   2.968
   69DIO    C11 3822   5.177   1.211   2.848
   69DIO    C12 3823   5.321   1.199   2.852
   69DIO     F4 3824   5.386   1.158   2.742
   69DIO     O1 3825   4.972   1.288   2.961
   69DIO    C13 3826   4.878   1.207   2.898
   69DIO     O2 3827   4.877   1.085   2.866
   69DIO    C14 3828   4.749   1.274   2.880
   69DIO    C15 3829   4.682   1.346   2.992
   69DIO     F5 3830   4.745   1.359   3.110
   69DIO    C16 3831   4.552   1.408   2.978
   69DIO    C17 3832   4.476   1.394   2.854
   69DIO    C18 3833   4.545   1.339   2.738
   69DIO    C19 3834   4.676   1.279   2.751
   69DIO     F6 3835   4.739   1.243   2.637
   69DIO    C20 3836   4.335   1.448   2.842
   69DIO     O3 3837   4.265   1.455   2.967
   69DIO    C21 3838   4.222   1.328   3.013
   69DIO    C22 3839   4.133   1.260   2.910
   69DIO    C23 3840   4.214   1.253   2.780
   69DIO     O4 3841   4.258   1.383   2.741
   69DIO    C24 3842   4.000   1.335   2.885
   69DIO    C25 3843   3.909   1.352   3.007
   69DIO    C26 3844   3.871   1.221   3.074
   69DIO     H1 3845   5.592   1.330   2.795
   69DIO     H2 3846   5.550   1.084   3.161
   69DIO     H3 3847   5.373   1.305   3.182
   69DIO     H4 3848   5.122   1.332   3.170
   69DIO     H5 3849   5.123   1.186   2.758
   69DIO     H6 3850   4.514   1.466   3.061
   69DIO     H7 3851   4.502   1.347   2.639
   69DIO     H8 3852   4.345   1.552   2.809
   69DIO     H9 3853   4.308   1.265   3.037
   69DIO    H10 3854   4.169   1.342   3.108
   69DIO    H11 3855   4.110   1.158   2.942
   69DIO    H12 3856   4.153   1.213   2.699
   69DIO    H13 3857   4.300   1.186   2.791
   69DIO    H14 3858   4.020   1.434   2.844
   69DIO    H15 3859   3.944   1.281   2.808
   69DIO    H16 3860   3.957   1.418   3.081
   69DIO    H17 3861   3.818   1.403   2.975
   69DIO    H18 3862   3.827   1.151   3.003
   69DIO    H19 3863   3.958   1.173   3.121
   69DIO    H20 3864   3.797   1.239   3.153
   70DIO     F1 3865   5.288   0.703   6.956
   70DIO     C1 3866   5.210   0.617   7.024
   70DIO     C2 3867   5.066   0.633   7.022
   70DIO     C3 3868   4.977   0.542   7.097
   70DIO     C4 3869   5.043   0.432   7.172
   70DIO     C5 3870   5.187   0.418   7.173
   70DIO     F2 3871   5.242   0.314   7.239
   70DIO     C6 3872   5.271   0.509   7.099
   70DIO     F3 3873   5.404   0.495   7.101
   70DIO     C7 3874   4.831   0.558   7.097
   70DIO     C8 3875   4.754   0.560   7.223
   70DIO     C9 3876   4.609   0.575   7.223
   70DIO    C10 3877   4.536   0.579   7.098
   70DIO    C11 3878   4.609   0.584   6.972
   70DIO    C12 3879   4.753   0.572   6.972
   70DIO     F4 3880   4.818   0.572   6.854
   70DIO     O1 3881   4.404   0.617   7.105
   70DIO    C13 3882   4.310   0.564   7.018
   70DIO     O2 3883   4.309   0.460   6.945
   70DIO    C14 3884   4.180   0.633   7.025
   70DIO    C15 3885   4.114   0.661   7.154
   70DIO     F5 3886   4.177   0.632   7.270
   70DIO    C16 3887   3.983   0.723   7.163
   70DIO    C17 3888   3.908   0.754   7.042
   70DIO    C18 3889   3.976   0.743   6.914
   70DIO    C19 3890   4.108   0.682   6.906
   70DIO     F6 3891   4.170   0.689   6.786
   70DIO    C20 3892   3.767   0.809   7.050
   70DIO     O3 3893   3.697   0.772   7.169
   70DIO    C21 3894   3.653   0.636   7.168
   70DIO    C22 3895   3.565   0.609   7.047
   70DIO    C23 3896   3.645   0.648   6.923
   70DIO     O4 3897   3.690   0.783   6.932
   70DIO    C24 3898   3.432   0.688   7.050
   70DIO    C25 3899   3.341   0.661   7.171
   70DIO    C26 3900   3.303   0.515   7.188
   70DIO     H1 3901   5.023   0.714   6.964
   70DIO     H2 3902   4.982   0.357   7.221
   70DIO     H3 3903   4.805   0.555   7.318
   70DIO     H4 3904   4.554   0.585   7.316
   70DIO     H5 3905   4.554   0.593   6.879
   70DIO     H6 3906   3.945   0.749   7.261
   70DIO     H7 3907   3.933   0.785   6.824
   70DIO     H8 3908   3.777   0.918   7.055
   70DIO     H9 3909   3.740   0.569   7.168
   70DIO    H10 3910   3.601   0.617   7.262
   70DIO    H11 3911   3.542   0.502   7.042
   70DIO    H12 3912   3.584   0.639   6.833
   70DIO    H13 3913   3.731   0.581   6.910
   70DIO    H14 3914   3.452   0.796   7.046
   70DIO    H15 3915   3.375   0.664   6.959
   70DIO    H16 3916   3.388   0.697   7.263
   70DIO    H17 3917   3.249   0.720   7.159
   70DIO    H18 3918   3.259   0.475   7.096
   70DIO    H19 3919   3.389   0.454   7.215
   70DIO    H20 3920   3.229   0.505   7.268
   71DIO     F1 3921   2.998  -0.093   1.698
   71DIO     C1 3922   2.921  -0.031   1.607
   71DIO     C2 3923   2.777  -0.046   1.615
   71DIO     C3 3924   2.688   0.019   1.516
   71DIO     C4 3925   2.753   0.101   1.412
   71DIO     C5 3926   2.898   0.115   1.407
   71DIO     F2 3927   2.953   0.195   1.313
   71DIO     C6 3928   2.981   0.050   1.504
   71DIO     F3 3929   3.115   0.063   1.498
   71DIO     C7 3930   2.541   0.003   1.521
   71DIO     C8 3931   2.464  -0.036   1.401
   71DIO     C9 3932   2.320  -0.050   1.405
   71DIO    C10 3933   2.247  -0.017   1.526
   71DIO    C11 3934   2.320   0.015   1.648
   71DIO    C12 3935   2.464   0.027   1.644
   71DIO     F4 3936   2.529   0.062   1.757
   71DIO     O1 3937   2.115  -0.055   1.531
   71DIO    C13 3938   2.020   0.022   1.598
   71DIO     O2 3939   2.019   0.142   1.636
   71DIO    C14 3940   1.891  -0.047   1.612
   71DIO    C15 3941   1.825  -0.112   1.497
   71DIO     F5 3942   1.888  -0.118   1.377
   71DIO    C16 3943   1.694  -0.174   1.506
   71DIO    C17 3944   1.618  -0.168   1.631
   71DIO    C18 3945   1.687  -0.119   1.750
   71DIO    C19 3946   1.819  -0.059   1.740
   71DIO     F6 3947   1.881  -0.029   1.856
   71DIO    C20 3948   1.478  -0.222   1.640
   71DIO     O3 3949   1.408  -0.222   1.515
   71DIO    C21 3950   1.364  -0.092   1.476
   71DIO    C22 3951   1.275  -0.030   1.583
   71DIO    C23 3952   1.356  -0.031   1.713
   71DIO     O4 3953   1.400  -0.162   1.745
   71DIO    C24 3954   1.143  -0.107   1.603
   71DIO    C25 3955   1.052  -0.117   1.480
   71DIO    C26 3956   1.013   0.018   1.421
   71DIO     H1 3957   2.734  -0.107   1.694
   71DIO     H2 3958   2.693   0.159   1.343
   71DIO     H3 3959   2.516  -0.060   1.308
   71DIO     H4 3960   2.265  -0.087   1.320
   71DIO     H5 3961   2.265   0.035   1.739
   71DIO     H6 3962   1.656  -0.228   1.420
   71DIO     H7 3963   1.644  -0.133   1.849
   71DIO     H8 3964   1.487  -0.328   1.667
   71DIO     H9 3965   1.451  -0.028   1.456
   71DIO    H10 3966   1.311  -0.102   1.381
   71DIO    H11 3967   1.253   0.074   1.556
   71DIO    H12 3968   1.295   0.005   1.797
   71DIO    H13 3969   1.442   0.037   1.706
   71DIO    H14 3970   1.162  -0.208   1.639
   71DIO    H15 3971   1.086  -0.057   1.683
   71DIO    H16 3972   1.099  -0.179   1.403
   71DIO    H17 3973   0.960  -0.169   1.510
   71DIO    H18 3974   0.970   0.083   1.497
   71DIO    H19 3975   1.100   0.068   1.377
   71DIO    H20 3976   0.940   0.004   1.341
   72DIO     F1 3977  10.562   3.394   8.007
   72DIO     C1 3978  10.484   3.488   7.951
   72DIO     C2 3979  10.340   3.471   7.951
   72DIO     C3 3980  10.252   3.572   7.888
   72DIO     C4 3981  10.317   3.690   7.828
   72DIO     C5 3982  10.461   3.705   7.830
   72DIO     F2 3983  10.517   3.816   7.778
   72DIO     C6 3984  10.545   3.605   7.891
   72DIO     F3 3985  10.679   3.619   7.891
   72DIO     C7 3986  10.105   3.556   7.886
   72DIO     C8 3987  10.028   3.570   7.761
   72DIO     C9 3988   9.883   3.555   7.759
   72DIO    C10 3989   9.811   3.535   7.883
   72DIO    C11 3990   9.883   3.513   8.007
   72DIO    C12 3991  10.027   3.526   8.008
   72DIO     F4 3992  10.092   3.510   8.125
   72DIO     O1 3993   9.679   3.498   7.871
   72DIO    C13 3994   9.584   3.540   7.964
   72DIO     O2 3995   9.583   3.633   8.049
   72DIO    C14 3996   9.455   3.472   7.948
   72DIO    C15 3997   9.389   3.461   7.816
   72DIO     F5 3998   9.451   3.505   7.705
   72DIO    C16 3999   9.258   3.401   7.799
   72DIO    C17 4000   9.182   3.354   7.915
   72DIO    C18 4001   9.251   3.348   8.043
   72DIO    C19 4002   9.382   3.408   8.060
   72DIO     F6 4003   9.445   3.386   8.178
   72DIO    C20 4004   9.041   3.301   7.900
   72DIO     O3 4005   8.972   3.354   7.787
   72DIO    C21 4006   8.928   3.488   7.806
   72DIO    C22 4007   8.839   3.499   7.929
   72DIO    C23 4008   8.920   3.444   8.047
   72DIO     O4 4009   8.964   3.311   8.020
   72DIO    C24 4010   8.706   3.421   7.916
   72DIO    C25 4011   8.616   3.463   7.800
   72DIO    C26 4012   8.577   3.611   7.802
   72DIO     H1 4013  10.298   3.383   7.998
   72DIO     H2 4014  10.256   3.772   7.790
   72DIO     H3 4015  10.080   3.587   7.667
   72DIO     H4 4016   9.828   3.557   7.666
   72DIO     H5 4017   9.829   3.493   8.098
   72DIO     H6 4018   9.220   3.388   7.699
   72DIO     H7 4019   9.208   3.295   8.127
   72DIO     H8 4020   9.051   3.194   7.881
   72DIO     H9 4021   9.015   3.554   7.815
   72DIO    H10 4022   8.875   3.519   7.715
   72DIO    H11 4023   8.817   3.604   7.948
   72DIO    H12 4024   8.859   3.441   8.138
   72DIO    H13 4025   9.006   3.509   8.069
   72DIO    H14 4026   8.726   3.314   7.906
   72DIO    H15 4027   8.650   3.433   8.009
   72DIO    H16 4028   8.663   3.439   7.704
   72DIO    H17 4029   8.524   3.403   7.804
   72DIO    H18 4030   8.533   3.638   7.898
   72DIO    H19 4031   8.664   3.675   7.783
   72DIO    H20 4032   8.504   3.631   7.724
   73DIO     F1 4033  10.077   0.668  -0.488
   73DIO     C1 4034  10.000   0.778  -0.493
   73DIO     C2 4035   9.855   0.763  -0.501
   73DIO     C3 4036   9.767   0.881  -0.510
   73DIO     C4 4037   9.832   1.014  -0.507
   73DIO     C5 4038   9.976   1.026  -0.500
   73DIO     F2 4039  10.032   1.149  -0.494
   73DIO     C6 4040  10.060   0.909  -0.492
   73DIO     F3 4041  10.194   0.922  -0.486
   73DIO     C7 4042   9.620   0.868  -0.519
   73DIO     C8 4043   9.543   0.939  -0.623
   73DIO     C9 4044   9.398   0.927  -0.632
   73DIO    C10 4045   9.326   0.852  -0.531
   73DIO    C11 4046   9.398   0.774  -0.432
   73DIO    C12 4047   9.542   0.785  -0.425
   73DIO     F4 4048   9.607   0.716  -0.329
   73DIO     O1 4049   9.194   0.824  -0.559
   73DIO    C13 4050   9.099   0.818  -0.457
   73DIO     O2 4051   9.098   0.860  -0.339
   73DIO    C14 4052   8.970   0.765  -0.503
   73DIO    C15 4053   8.904   0.817  -0.625
   73DIO     F5 4054   8.966   0.908  -0.703
   73DIO    C16 4055   8.773   0.771  -0.668
   73DIO    C17 4056   8.697   0.676  -0.588
   73DIO    C18 4057   8.766   0.611  -0.477
   73DIO    C19 4058   8.898   0.656  -0.434
   73DIO     F6 4059   8.960   0.582  -0.340
   73DIO    C20 4060   8.556   0.636  -0.625
   73DIO     O3 4061   8.487   0.736  -0.701
   73DIO    C21 4062   8.443   0.845  -0.622
   73DIO    C22 4063   8.354   0.798  -0.507
   73DIO    C23 4064   8.435   0.694  -0.429
   73DIO     O4 4065   8.479   0.589  -0.514
   73DIO    C24 4066   8.221   0.735  -0.556
   73DIO    C25 4067   8.131   0.827  -0.639
   73DIO    C26 4068   8.092   0.956  -0.568
   73DIO     H1 4069   9.813   0.663  -0.501
   73DIO     H2 4070   9.772   1.104  -0.504
   73DIO     H3 4071   9.595   0.998  -0.698
   73DIO     H4 4072   9.343   0.972  -0.713
   73DIO     H5 4073   9.344   0.714  -0.361
   73DIO     H6 4074   8.735   0.807  -0.763
   73DIO     H7 4075   8.723   0.525  -0.427
   73DIO     H8 4076   8.566   0.550  -0.692
   73DIO     H9 4077   8.530   0.900  -0.583
   73DIO    H10 4078   8.390   0.915  -0.687
   73DIO    H11 4079   8.332   0.882  -0.441
   73DIO    H12 4080   8.374   0.650  -0.350
   73DIO    H13 4081   8.521   0.741  -0.380
   73DIO    H14 4082   8.241   0.645  -0.615
   73DIO    H15 4083   8.165   0.702  -0.468
   73DIO    H16 4084   8.178   0.850  -0.735
   73DIO    H17 4085   8.039   0.771  -0.663
   73DIO    H18 4086   8.048   0.936  -0.470
   73DIO    H19 4087   8.179   1.021  -0.555
   73DIO    H20 4088   8.019   1.011  -0.628
   74DIO     F1 4089   8.544   5.946   5.710
   74DIO     C1 4090   8.467   5.842   5.673
   74DIO     C2 4091   8.322   5.853   5.686
   74DIO     C3 4092   8.234   5.740   5.649
   74DIO     C4 4093   8.299   5.619   5.596
   74DIO     C5 4094   8.443   5.610   5.584
   74DIO     F2 4095   8.499   5.499   5.532
   74DIO     C6 4096   8.527   5.721   5.622
   74DIO     F3 4097   8.661   5.712   5.611
   74DIO     C7 4098   8.087   5.749   5.663
   74DIO     C8 4099   8.010   5.643   5.732
   74DIO     C9 4100   7.865   5.651   5.744
   74DIO    C10 4101   7.793   5.760   5.681
   74DIO    C11 4102   7.865   5.869   5.618
   74DIO    C12 4103   8.009   5.862   5.608
   74DIO     F4 4104   8.074   5.962   5.545
   74DIO     O1 4105   7.661   5.774   5.717
   74DIO    C13 4106   7.566   5.819   5.625
   74DIO     O2 4107   7.565   5.825   5.499
   74DIO    C14 4108   7.437   5.850   5.688
   74DIO    C15 4109   7.371   5.756   5.780
   74DIO     F5 4110   7.433   5.642   5.817
   74DIO    C16 4111   7.240   5.781   5.838
   74DIO    C17 4112   7.164   5.900   5.800
   74DIO    C18 4113   7.233   6.002   5.722
   74DIO    C19 4114   7.365   5.977   5.666
   74DIO     F6 4115   7.427   6.082   5.608
   74DIO    C20 4116   7.023   5.922   5.850
   74DIO     O3 4117   6.954   5.801   5.882
   74DIO    C21 4118   6.910   5.731   5.767
   74DIO    C22 4119   6.821   5.818   5.679
   74DIO    C23 4120   6.902   5.944   5.646
   74DIO     O4 4121   6.946   6.008   5.765
   74DIO    C24 4122   6.688   5.858   5.748
   74DIO    C25 4123   6.598   5.741   5.789
   74DIO    C26 4124   6.559   5.649   5.674
   74DIO     H1 4125   8.280   5.945   5.724
   74DIO     H2 4126   8.239   5.537   5.558
   74DIO     H3 4127   8.062   5.560   5.778
   74DIO     H4 4128   7.810   5.578   5.802
   74DIO     H5 4129   7.811   5.952   5.576
   74DIO     H6 4130   7.202   5.712   5.912
   74DIO     H7 4131   7.190   6.101   5.710
   74DIO     H8 4132   7.033   5.976   5.945
   74DIO     H9 4133   6.997   5.695   5.710
   74DIO    H10 4134   6.857   5.641   5.800
   74DIO    H11 4135   6.799   5.766   5.586
   74DIO    H12 4136   6.841   6.015   5.590
   74DIO    H13 4137   6.988   5.919   5.583
   74DIO    H14 4138   6.708   5.918   5.837
   74DIO    H15 4139   6.632   5.922   5.679
   74DIO    H16 4140   6.645   5.683   5.869
   74DIO    H17 4141   6.506   5.783   5.832
   74DIO    H18 4142   6.515   5.705   5.592
   74DIO    H19 4143   6.646   5.594   5.637
   74DIO    H20 4144   6.486   5.576   5.709
   75DIO     F1 4145   7.731   9.548   7.814
   75DIO     C1 4146   7.654   9.616   7.900
   75DIO     C2 4147   7.510   9.614   7.884
   75DIO     C3 4148   7.421   9.689   7.975
   75DIO     C4 4149   7.486   9.765   8.084
   75DIO     C5 4150   7.631   9.766   8.099
   75DIO     F2 4151   7.686   9.832   8.202
   75DIO     C6 4152   7.714   9.691   8.008
   75DIO     F3 4153   7.848   9.694   8.022
   75DIO     C7 4154   7.274   9.689   7.959
   75DIO     C8 4155   7.197   9.816   7.956
   75DIO     C9 4156   7.053   9.815   7.941
   75DIO    C10 4157   6.980   9.690   7.938
   75DIO    C11 4158   7.053   9.564   7.933
   75DIO    C12 4159   7.197   9.564   7.945
   75DIO     F4 4160   7.262   9.446   7.946
   75DIO     O1 4161   6.848   9.697   7.899
   75DIO    C13 4162   6.753   9.610   7.954
   75DIO     O2 4163   6.752   9.538   8.057
   75DIO    C14 4164   6.624   9.617   7.884
   75DIO    C15 4165   6.558   9.746   7.855
   75DIO     F5 4166   6.621   9.862   7.884
   75DIO    C16 4167   6.427   9.754   7.793
   75DIO    C17 4168   6.351   9.634   7.763
   75DIO    C18 4169   6.420   9.506   7.774
   75DIO    C19 4170   6.552   9.497   7.835
   75DIO     F6 4171   6.614   9.378   7.830
   75DIO    C20 4172   6.211   9.641   7.708
   75DIO     O3 4173   6.141   9.761   7.745
   75DIO    C21 4174   6.097   9.760   7.880
   75DIO    C22 4175   6.008   9.639   7.908
   75DIO    C23 4176   6.089   9.515   7.870
   75DIO     O4 4177   6.133   9.523   7.735
   75DIO    C24 4178   5.876   9.642   7.829
   75DIO    C25 4179   5.785   9.763   7.855
   75DIO    C26 4180   5.746   9.780   8.001
   75DIO     H1 4181   7.467   9.555   7.803
   75DIO     H2 4182   7.426   9.814   8.160
   75DIO     H3 4183   7.249   9.910   7.960
   75DIO     H4 4184   6.998   9.908   7.930
   75DIO     H5 4185   6.998   9.471   7.925
   75DIO     H6 4186   6.389   9.852   7.767
   75DIO     H7 4187   6.377   9.415   7.733
   75DIO     H8 4188   6.220   9.645   7.599
   75DIO     H9 4189   6.184   9.760   7.947
   75DIO    H10 4190   6.044   9.854   7.899
   75DIO    H11 4191   5.986   9.635   8.015
   75DIO    H12 4192   6.028   9.425   7.879
   75DIO    H13 4193   6.175   9.502   7.937
   75DIO    H14 4194   5.895   9.637   7.721
   75DIO    H15 4195   5.819   9.551   7.854
   75DIO    H16 4196   5.832   9.854   7.819
   75DIO    H17 4197   5.693   9.750   7.796
   75DIO    H18 4198   5.703   9.689   8.042
   75DIO    H19 4199   5.833   9.807   8.063
   75DIO    H20 4200   5.673   9.861   8.011
   76DIO     F1 4201   8.024  10.289   7.109
   76DIO     C1 4202   7.946  10.282   7.219
   76DIO     C2 4203   7.802  10.292   7.205
   76DIO     C3 4204   7.713  10.287   7.323
   76DIO     C4 4205   7.779  10.270   7.455
   76DIO     C5 4206   7.923  10.261   7.467
   76DIO     F2 4207   7.978  10.241   7.588
   76DIO     C6 4208   8.007  10.266   7.349
   76DIO     F3 4209   8.140  10.258   7.361
   76DIO     C7 4210   7.567  10.297   7.311
   76DIO     C8 4211   7.490  10.393   7.394
   76DIO     C9 4212   7.345  10.403   7.383
   76DIO    C10 4213   7.272  10.312   7.296
   76DIO    C11 4214   7.345  10.222   7.208
   76DIO    C12 4215   7.489  10.214   7.218
   76DIO     F4 4216   7.554  10.126   7.139
   76DIO     O1 4217   7.140  10.343   7.272
   76DIO    C13 4218   7.046  10.242   7.254
   76DIO     O2 4219   7.045  10.119   7.283
   76DIO    C14 4220   6.917  10.293   7.208
   76DIO    C15 4221   6.850  10.409   7.273
   76DIO     F5 4222   6.913  10.476   7.372
   76DIO    C16 4223   6.719  10.457   7.232
   76DIO    C17 4224   6.644  10.387   7.129
   76DIO    C18 4225   6.712  10.284   7.052
   76DIO    C19 4226   6.844  10.237   7.091
   76DIO     F6 4227   6.907  10.152   7.007
   76DIO    C20 4228   6.503  10.429   7.093
   76DIO     O3 4229   6.433  10.494   7.200
   76DIO    C21 4230   6.390  10.402   7.300
   76DIO    C22 4231   6.301  10.294   7.240
   76DIO    C23 4232   6.381  10.228   7.129
   76DIO     O4 4233   6.426  10.324   7.034
   76DIO    C24 4234   6.168  10.349   7.184
   76DIO    C25 4235   6.077  10.421   7.284
   76DIO    C26 4236   6.039  10.337   7.404
   76DIO     H1 4237   7.759  10.302   7.106
   76DIO     H2 4238   7.718  10.256   7.544
   76DIO     H3 4239   7.541  10.461   7.461
   76DIO     H4 4240   7.290  10.479   7.437
   76DIO     H5 4241   7.290  10.158   7.140
   76DIO     H6 4242   6.681  10.547   7.278
   76DIO     H7 4243   6.670  10.245   6.960
   76DIO     H8 4244   6.513  10.505   7.015
   76DIO     H9 4245   6.476  10.358   7.350
   76DIO    H10 4246   6.337  10.460   7.377
   76DIO    H11 4247   6.278  10.219   7.317
   76DIO    H12 4248   6.320  10.154   7.076
   76DIO    H13 4249   6.468  10.173   7.170
   76DIO    H14 4250   6.188  10.418   7.100
   76DIO    H15 4251   6.111  10.265   7.141
   76DIO    H16 4252   6.125  10.514   7.318
   76DIO    H17 4253   5.985  10.451   7.232
   76DIO    H18 4254   5.995  10.241   7.373
   76DIO    H19 4255   6.125  10.316   7.468
   76DIO    H20 4256   5.965  10.390   7.465
   77DIO     F1 4257   1.398  -0.695  -0.244
   77DIO     C1 4258   1.320  -0.595  -0.198
   77DIO     C2 4259   1.176  -0.604  -0.212
   77DIO     C3 4260   1.087  -0.496  -0.164
   77DIO     C4 4261   1.153  -0.379  -0.101
   77DIO     C5 4262   1.297  -0.372  -0.088
   77DIO     F2 4263   1.352  -0.266  -0.026
   77DIO     C6 4264   1.381  -0.479  -0.136
   77DIO     F3 4265   1.515  -0.471  -0.124
   77DIO     C7 4266   0.941  -0.503  -0.179
   77DIO     C8 4267   0.864  -0.392  -0.238
   77DIO     C9 4268   0.719  -0.399  -0.251
   77DIO    C10 4269   0.646  -0.512  -0.197
   77DIO    C11 4270   0.719  -0.627  -0.145
   77DIO    C12 4271   0.863  -0.621  -0.134
   77DIO     F4 4272   0.928  -0.726  -0.081
   77DIO     O1 4273   0.514  -0.523  -0.235
   77DIO    C13 4274   0.420  -0.576  -0.147
   77DIO     O2 4275   0.419  -0.594  -0.023
   77DIO    C14 4276   0.291  -0.601  -0.212
   77DIO    C15 4277   0.224  -0.499  -0.296
   77DIO     F5 4278   0.287  -0.383  -0.323
   77DIO    C16 4279   0.094  -0.519  -0.356
   77DIO    C17 4280   0.018  -0.641  -0.329
   77DIO    C18 4281   0.087  -0.750  -0.260
   77DIO    C19 4282   0.218  -0.730  -0.202
   77DIO     F6 4283   0.281  -0.839  -0.154
   77DIO    C20 4284  -0.123  -0.659  -0.380
   77DIO     O3 4285  -0.193  -0.536  -0.402
   77DIO    C21 4286  -0.236  -0.475  -0.280
   77DIO    C22 4287  -0.325  -0.571  -0.201
   77DIO    C23 4288  -0.244  -0.699  -0.180
   77DIO     O4 4289  -0.200  -0.752  -0.304
   77DIO    C24 4290  -0.458  -0.604  -0.273
   77DIO    C25 4291  -0.549  -0.484  -0.304
   77DIO    C26 4292  -0.587  -0.403  -0.181
   77DIO     H1 4293   1.133  -0.693  -0.257
   77DIO     H2 4294   1.092  -0.301  -0.055
   77DIO     H3 4295   0.915  -0.305  -0.277
   77DIO     H4 4296   0.664  -0.321  -0.302
   77DIO     H5 4297   0.665  -0.713  -0.110
   77DIO     H6 4298   0.055  -0.444  -0.423
   77DIO     H7 4299   0.044  -0.849  -0.257
   77DIO     H8 4300  -0.113  -0.704  -0.480
   77DIO     H9 4301  -0.150  -0.445  -0.221
   77DIO    H10 4302  -0.289  -0.383  -0.306
   77DIO    H11 4303  -0.348  -0.527  -0.103
   77DIO    H12 4304  -0.306  -0.775  -0.130
   77DIO    H13 4305  -0.158  -0.680  -0.114
   77DIO    H14 4306  -0.438  -0.656  -0.367
   77DIO    H15 4307  -0.514  -0.674  -0.210
   77DIO    H16 4308  -0.501  -0.419  -0.378
   77DIO    H17 4309  -0.640  -0.522  -0.351
   77DIO    H18 4310  -0.631  -0.466  -0.104
   77DIO    H19 4311  -0.501  -0.351  -0.139
   77DIO    H20 4312  -0.661  -0.326  -0.209
   78DIO     F1 4313   3.735   6.687   6.851
   78DIO     C1 4314   3.658   6.794   6.827
   78DIO     C2 4315   3.514   6.778   6.822
   78DIO     C3 4316   3.425   6.893   6.793
   78DIO     C4 4317   3.490   7.024   6.772
   78DIO     C5 4318   3.635   7.037   6.778
   78DIO     F2 4319   3.690   7.159   6.763
   78DIO     C6 4320   3.718   6.923   6.806
   78DIO     F3 4321   3.852   6.937   6.810
   78DIO     C7 4322   3.279   6.878   6.786
   78DIO     C8 4323   3.201   6.930   6.671
   78DIO     C9 4324   3.057   6.917   6.665
   78DIO    C10 4325   2.984   6.860   6.777
   78DIO    C11 4326   3.057   6.800   6.888
   78DIO    C12 4327   3.201   6.812   6.893
   78DIO     F4 4328   3.266   6.761   6.999
   78DIO     O1 4329   2.852   6.828   6.754
   78DIO    C13 4330   2.757   6.839   6.855
   78DIO     O2 4331   2.757   6.901   6.965
   78DIO    C14 4332   2.628   6.779   6.819
   78DIO    C15 4333   2.562   6.810   6.690
   78DIO     F5 4334   2.625   6.886   6.598
   78DIO    C16 4335   2.431   6.757   6.655
   78DIO    C17 4336   2.355   6.677   6.751
   78DIO    C18 4337   2.424   6.632   6.872
   78DIO    C19 4338   2.556   6.684   6.905
   78DIO     F6 4339   2.618   6.626   7.011
   78DIO    C20 4340   2.215   6.632   6.721
   78DIO     O3 4341   2.145   6.716   6.629
   78DIO    C21 4342   2.101   6.838   6.688
   78DIO    C22 4343   2.012   6.811   6.809
   78DIO    C23 4344   2.093   6.722   6.904
   78DIO     O4 4345   2.137   6.604   6.838
   78DIO    C24 4346   1.880   6.741   6.772
   78DIO    C25 4347   1.789   6.817   6.675
   78DIO    C26 4348   1.751   6.956   6.723
   78DIO     H1 4349   3.471   6.680   6.839
   78DIO     H2 4350   3.430   7.113   6.761
   78DIO     H3 4351   3.253   6.976   6.587
   78DIO     H4 4352   3.002   6.947   6.577
   78DIO     H5 4353   3.002   6.753   6.968
   78DIO     H6 4354   2.393   6.776   6.556
   78DIO     H7 4355   2.381   6.556   6.935
   78DIO     H8 4356   2.224   6.535   6.669
   78DIO     H9 4357   2.188   6.898   6.717
   78DIO    H10 4358   2.049   6.896   6.612
   78DIO    H11 4359   1.990   6.905   6.860
   78DIO    H12 4360   2.032   6.692   6.990
   78DIO    H13 4361   2.179   6.777   6.945
   78DIO    H14 4362   1.900   6.642   6.730
   78DIO    H15 4363   1.823   6.723   6.865
   78DIO    H16 4364   1.836   6.824   6.576
   78DIO    H17 4365   1.697   6.758   6.661
   78DIO    H18 4366   1.707   6.953   6.823
   78DIO    H19 4367   1.837   7.023   6.725
   78DIO    H20 4368   1.677   7.000   6.654
   79DIO     F1 4369   2.030   0.064   8.556
   79DIO     C1 4370   1.952  -0.046   8.551
   79DIO     C2 4371   1.808  -0.032   8.560
   79DIO     C3 4372   1.719  -0.150   8.557
   79DIO     C4 4373   1.785  -0.283   8.542
   79DIO     C5 4374   1.929  -0.294   8.533
   79DIO     F2 4375   1.984  -0.416   8.515
   79DIO     C6 4376   2.013  -0.177   8.537
   79DIO     F3 4377   2.147  -0.189   8.529
   79DIO     C7 4378   1.573  -0.138   8.567
   79DIO     C8 4379   1.496  -0.219   8.664
   79DIO     C9 4380   1.351  -0.208   8.674
   79DIO    C10 4381   1.278  -0.123   8.581
   79DIO    C11 4382   1.351  -0.036   8.490
   79DIO    C12 4383   1.495  -0.046   8.482
   79DIO     F4 4384   1.560   0.031   8.393
   79DIO     O1 4385   1.146  -0.098   8.612
   79DIO    C13 4386   1.052  -0.082   8.511
   79DIO     O2 4387   1.051  -0.113   8.389
   79DIO    C14 4388   0.923  -0.034   8.562
   79DIO    C15 4389   0.856  -0.098   8.678
   79DIO     F5 4390   0.919  -0.196   8.747
   79DIO    C16 4391   0.726  -0.056   8.725
   79DIO    C17 4392   0.650   0.046   8.654
   79DIO    C18 4393   0.719   0.121   8.550
   79DIO    C19 4394   0.850   0.081   8.504
   79DIO     F6 4395   0.913   0.164   8.418
   79DIO    C20 4396   0.509   0.082   8.696
   79DIO     O3 4397   0.439  -0.024   8.762
   79DIO    C21 4398   0.396  -0.126   8.672
   79DIO    C22 4399   0.307  -0.067   8.563
   79DIO    C23 4400   0.388   0.043   8.495
   79DIO     O4 4401   0.432   0.140   8.590
   79DIO    C24 4402   0.174  -0.010   8.617
   79DIO    C25 4403   0.083  -0.109   8.691
   79DIO    C26 4404   0.045  -0.230   8.608
   79DIO     H1 4405   1.765   0.067   8.569
   79DIO     H2 4406   1.724  -0.372   8.529
   79DIO     H3 4407   1.547  -0.285   8.733
   79DIO     H4 4408   1.296  -0.261   8.751
   79DIO     H5 4409   1.297   0.031   8.425
   79DIO     H6 4410   0.687  -0.101   8.817
   79DIO     H7 4411   0.676   0.212   8.509
   79DIO     H8 4412   0.519   0.161   8.771
   79DIO     H9 4413   0.482  -0.176   8.628
   79DIO    H10 4414   0.343  -0.201   8.731
   79DIO    H11 4415   0.284  -0.145   8.489
   79DIO    H12 4416   0.326   0.095   8.420
   79DIO    H13 4417   0.474   0.001   8.441
   79DIO    H14 4418   0.194   0.075   8.684
   79DIO    H15 4419   0.118   0.032   8.532
   79DIO    H16 4420   0.131  -0.141   8.784
   79DIO    H17 4421  -0.008  -0.056   8.720
   79DIO    H18 4422   0.001  -0.201   8.512
   79DIO    H19 4423   0.131  -0.294   8.588
   79DIO    H20 4424  -0.029  -0.291   8.662
   80DIO     F1 4425   1.892  -0.567   4.610
   80DIO     C1 4426   1.814  -0.664   4.558
   80DIO     C2 4427   1.670  -0.655   4.572
   80DIO     C3 4428   1.581  -0.760   4.518
   80DIO     C4 4429   1.647  -0.872   4.447
   80DIO     C5 4430   1.791  -0.879   4.434
   80DIO     F2 4431   1.846  -0.980   4.365
   80DIO     C6 4432   1.875  -0.775   4.489
   80DIO     F3 4433   2.008  -0.782   4.477
   80DIO     C7 4434   1.435  -0.754   4.533
   80DIO     C8 4435   1.358  -0.869   4.585
   80DIO     C9 4436   1.213  -0.863   4.599
   80DIO    C10 4437   1.140  -0.746   4.552
   80DIO    C11 4438   1.213  -0.628   4.508
   80DIO    C12 4439   1.357  -0.634   4.496
   80DIO     F4 4440   1.422  -0.525   4.450
   80DIO     O1 4441   1.008  -0.737   4.590
   80DIO    C13 4442   0.914  -0.679   4.507
   80DIO     O2 4443   0.913  -0.653   4.383
   80DIO    C14 4444   0.785  -0.658   4.573
   80DIO    C15 4445   0.718  -0.765   4.650
   80DIO     F5 4446   0.781  -0.883   4.669
   80DIO    C16 4447   0.587  -0.749   4.711
   80DIO    C17 4448   0.512  -0.626   4.691
   80DIO    C18 4449   0.580  -0.513   4.631
   80DIO    C19 4450   0.712  -0.529   4.571
   80DIO     F6 4451   0.775  -0.416   4.530
   80DIO    C20 4452   0.371  -0.611   4.744
   80DIO     O3 4453   0.301  -0.736   4.758
   80DIO    C21 4454   0.258  -0.788   4.633
   80DIO    C22 4455   0.169  -0.688   4.560
   80DIO    C23 4456   0.249  -0.559   4.547
   80DIO     O4 4457   0.294  -0.513   4.674
   80DIO    C24 4458   0.036  -0.660   4.634
   80DIO    C25 4459  -0.055  -0.781   4.657
   80DIO    C26 4460  -0.093  -0.854   4.529
   80DIO     H1 4461   1.627  -0.570   4.624
   80DIO     H2 4462   1.586  -0.947   4.397
   80DIO     H3 4463   1.409  -0.958   4.618
   80DIO     H4 4464   1.158  -0.944   4.645
   80DIO     H5 4465   1.158  -0.540   4.478
   80DIO     H6 4466   0.549  -0.829   4.773
   80DIO     H7 4467   0.538  -0.413   4.633
   80DIO     H8 4468   0.381  -0.573   4.847
   80DIO     H9 4469   0.344  -0.814   4.571
   80DIO    H10 4470   0.205  -0.882   4.652
   80DIO    H11 4471   0.146  -0.726   4.459
   80DIO    H12 4472   0.188  -0.479   4.502
   80DIO    H13 4473   0.336  -0.573   4.480
   80DIO    H14 4474   0.056  -0.613   4.731
   80DIO    H15 4475  -0.021  -0.585   4.576
   80DIO    H16 4476  -0.007  -0.851   4.726
   80DIO    H17 4477  -0.147  -0.746   4.706
   80DIO    H18 4478  -0.137  -0.786   4.456
   80DIO    H19 4479  -0.007  -0.903   4.484
   80DIO    H20 4480  -0.167  -0.932   4.552
   81DIO     F1 4481   7.428   1.084  -0.326
   81DIO     C1 4482   7.351   1.192  -0.344
   81DIO     C2 4483   7.207   1.177  -0.350
   81DIO     C3 4484   7.118   1.293  -0.372
   81DIO     C4 4485   7.183   1.425  -0.385
   81DIO     C5 4486   7.328   1.438  -0.378
   81DIO     F2 4487   7.383   1.561  -0.386
   81DIO     C6 4488   7.411   1.323  -0.357
   81DIO     F3 4489   7.545   1.336  -0.353
   81DIO     C7 4490   6.972   1.279  -0.380
   81DIO     C8 4491   6.894   1.338  -0.491
   81DIO     C9 4492   6.750   1.324  -0.499
   81DIO    C10 4493   6.677   1.261  -0.390
   81DIO    C11 4494   6.750   1.195  -0.283
   81DIO    C12 4495   6.894   1.207  -0.277
   81DIO     F4 4496   6.959   1.150  -0.173
   81DIO     O1 4497   6.545   1.231  -0.415
   81DIO    C13 4498   6.450   1.236  -0.313
   81DIO     O2 4499   6.450   1.291  -0.200
   81DIO    C14 4500   6.321   1.178  -0.352
   81DIO    C15 4501   6.255   1.216  -0.479
   81DIO     F5 4502   6.318   1.297  -0.567
   81DIO    C16 4503   6.124   1.166  -0.517
   81DIO    C17 4504   6.048   1.080  -0.426
   81DIO    C18 4505   6.117   1.029  -0.308
   81DIO    C19 4506   6.249   1.078  -0.272
   81DIO     F6 4507   6.311   1.015  -0.170
   81DIO    C20 4508   5.908   1.036  -0.459
   81DIO     O3 4509   5.838   1.126  -0.546
   81DIO    C21 4510   5.794   1.244  -0.479
   81DIO    C22 4511   5.705   1.210  -0.360
   81DIO    C23 4512   5.786   1.117  -0.270
   81DIO     O4 4513   5.830   1.002  -0.343
   81DIO    C24 4514   5.573   1.143  -0.401
   81DIO    C25 4515   5.482   1.224  -0.494
   81DIO    C26 4516   5.444   1.360  -0.438
   81DIO     H1 4517   7.164   1.078  -0.338
   81DIO     H2 4518   7.123   1.515  -0.391
   81DIO     H3 4519   6.946   1.388  -0.572
   81DIO     H4 4520   6.695   1.360  -0.584
   81DIO     H5 4521   6.695   1.144  -0.205
   81DIO     H6 4522   6.086   1.190  -0.615
   81DIO     H7 4523   6.074   0.948  -0.250
   81DIO     H8 4524   5.917   0.943  -0.516
   81DIO     H9 4525   5.881   1.303  -0.447
   81DIO    H10 4526   5.742   1.306  -0.552
   81DIO    H11 4527   5.683   1.302  -0.304
   81DIO    H12 4528   5.725   1.081  -0.187
   81DIO    H13 4529   5.872   1.169  -0.227
   81DIO    H14 4530   5.593   1.046  -0.449
   81DIO    H15 4531   5.516   1.120  -0.310
   81DIO    H16 4532   5.529   1.236  -0.592
   81DIO    H17 4533   5.390   1.166  -0.511
   81DIO    H18 4534   5.400   1.352  -0.339
   81DIO    H19 4535   5.530   1.427  -0.433
   81DIO    H20 4536   5.370   1.408  -0.504
   82DIO     F1 4537   5.598  10.754  10.683
   82DIO     C1 4538   5.521  10.647  10.659
   82DIO     C2 4539   5.376  10.659  10.671
   82DIO     C3 4540   5.288  10.543  10.648
   82DIO     C4 4541   5.353  10.416  10.610
   82DIO     C5 4542   5.497  10.406  10.599
   82DIO     F2 4543   5.553  10.289  10.561
   82DIO     C6 4544   5.581  10.521  10.623
   82DIO     F3 4545   5.715  10.510  10.614
   82DIO     C7 4546   5.141  10.554  10.660
   82DIO     C8 4547   5.064  10.457  10.742
   82DIO     C9 4548   4.919  10.467  10.753
   82DIO    C10 4549   4.847  10.566  10.677
   82DIO    C11 4550   4.919  10.667  10.601
   82DIO    C12 4551   5.063  10.659  10.592
   82DIO     F4 4552   5.128  10.751  10.517
   82DIO     O1 4553   4.715  10.585  10.711
   82DIO    C13 4554   4.620  10.618  10.614
   82DIO     O2 4555   4.619  10.609  10.489
   82DIO    C14 4556   4.491  10.657  10.672
   82DIO    C15 4557   4.425  10.575  10.776
   82DIO     F5 4558   4.487  10.466  10.827
   82DIO    C16 4559   4.294  10.607  10.830
   82DIO    C17 4560   4.218  10.720  10.777
   82DIO    C18 4561   4.287  10.812  10.688
   82DIO    C19 4562   4.419  10.780  10.635
   82DIO     F6 4563   4.481  10.877  10.564
   82DIO    C20 4564   4.077  10.749  10.824
   82DIO     O3 4565   4.008  10.633  10.871
   82DIO    C21 4566   3.964  10.548  10.766
   82DIO    C22 4567   3.875  10.624  10.668
   82DIO    C23 4568   3.956  10.745  10.620
   82DIO     O4 4569   4.000  10.823  10.730
   82DIO    C24 4570   3.742  10.672  10.731
   82DIO    C25 4571   3.652  10.561  10.787
   82DIO    C26 4572   3.613  10.456  10.684
   82DIO     H1 4573   5.334  10.756  10.697
   82DIO     H2 4574   5.293  10.330  10.582
   82DIO     H3 4575   5.116  10.381  10.798
   82DIO     H4 4576   4.864  10.401  10.820
   82DIO     H5 4577   4.865  10.744  10.549
   82DIO     H6 4578   4.256  10.548  10.912
   82DIO     H7 4579   4.244  10.909  10.663
   82DIO     H8 4580   4.087  10.814  10.912
   82DIO     H9 4581   4.051  10.506  10.714
   82DIO    H10 4582   3.911  10.463  10.810
   82DIO    H11 4583   3.853  10.560  10.582
   82DIO    H12 4584   3.895  10.809  10.555
   82DIO    H13 4585   4.042  10.713  10.560
   82DIO    H14 4586   3.762  10.743  10.812
   82DIO    H15 4587   3.686  10.727  10.655
   82DIO    H16 4588   3.699  10.513  10.873
   82DIO    H17 4589   3.560  10.608  10.824
   82DIO    H18 4590   3.569  10.501  10.595
   82DIO    H19 4591   3.700  10.396  10.654
   82DIO    H20 4592   3.540  10.387  10.727
   83DIO     F1 4593   2.327   9.512   0.604
   83DIO     C1 4594   2.250   9.427   0.534
   83DIO     C2 4595   2.105   9.433   0.550
   83DIO     C3 4596   2.017   9.339   0.477
   83DIO     C4 4597   2.082   9.242   0.387
   83DIO     C5 4598   2.226   9.238   0.373
   83DIO     F2 4599   2.282   9.151   0.286
   83DIO     C6 4600   2.310   9.331   0.446
   83DIO     F3 4601   2.444   9.325   0.432
   83DIO     C7 4602   1.870   9.343   0.493
   83DIO     C8 4603   1.793   9.220   0.523
   83DIO     C9 4604   1.648   9.224   0.537
   83DIO    C10 4605   1.576   9.347   0.513
   83DIO    C11 4606   1.648   9.471   0.492
   83DIO    C12 4607   1.792   9.468   0.479
   83DIO     F4 4608   1.857   9.583   0.454
   83DIO     O1 4609   1.444   9.348   0.552
   83DIO    C13 4610   1.349   9.422   0.481
   83DIO     O2 4611   1.348   9.470   0.365
   83DIO    C14 4612   1.220   9.430   0.550
   83DIO    C15 4613   1.154   9.310   0.606
   83DIO     F5 4614   1.216   9.190   0.603
   83DIO    C16 4615   1.023   9.315   0.669
   83DIO    C17 4616   0.947   9.439   0.673
   83DIO    C18 4617   1.016   9.562   0.634
   83DIO    C19 4618   1.148   9.557   0.572
   83DIO     F6 4619   1.210   9.675   0.552
   83DIO    C20 4620   0.806   9.444   0.727
   83DIO     O3 4621   0.737   9.319   0.717
   83DIO    C21 4622   0.693   9.291   0.585
   83DIO    C22 4623   0.604   9.403   0.532
   83DIO    C23 4624   0.685   9.532   0.543
   83DIO     O4 4625   0.729   9.553   0.676
   83DIO    C24 4626   0.471   9.417   0.609
   83DIO    C25 4627   0.381   9.293   0.610
   83DIO    C26 4628   0.342   9.245   0.471
   83DIO     H1 4629   2.063   9.507   0.617
   83DIO     H2 4630   2.022   9.178   0.324
   83DIO     H3 4631   1.845   9.126   0.539
   83DIO     H4 4632   1.593   9.135   0.567
   83DIO     H5 4633   1.594   9.563   0.479
   83DIO     H6 4634   0.985   9.225   0.715
   83DIO     H7 4635   0.973   9.659   0.655
   83DIO     H8 4636   0.816   9.463   0.835
   83DIO     H9 4637   0.780   9.276   0.520
   83DIO    H10 4638   0.640   9.195   0.587
   83DIO    H11 4639   0.582   9.384   0.426
   83DIO    H12 4640   0.624   9.618   0.514
   83DIO    H13 4641   0.771   9.530   0.475
   83DIO    H14 4642   0.491   9.444   0.714
   83DIO    H15 4643   0.415   9.500   0.566
   83DIO    H16 4644   0.428   9.212   0.665
   83DIO    H17 4645   0.289   9.318   0.665
   83DIO    H18 4646   0.298   9.326   0.411
   83DIO    H19 4647   0.429   9.205   0.417
   83DIO    H20 4648   0.269   9.164   0.478
   84DIO     F1 4649  10.973   0.380   6.205
   84DIO     C1 4650  10.896   0.301   6.282
   84DIO     C2 4651  10.752   0.318   6.278
   84DIO     C3 4652  10.663   0.235   6.362
   84DIO     C4 4653  10.728   0.133   6.448
   84DIO     C5 4654  10.873   0.119   6.450
   84DIO     F2 4655  10.928   0.022   6.527
   84DIO     C6 4656  10.956   0.202   6.367
   84DIO     F3 4657  11.090   0.188   6.371
   84DIO     C7 4658  10.516   0.250   6.361
   84DIO     C8 4659  10.439   0.266   6.486
   84DIO     C9 4660  10.295   0.281   6.484
   84DIO    C10 4661  10.222   0.271   6.359
   84DIO    C11 4662  10.294   0.264   6.233
   84DIO    C12 4663  10.439   0.252   6.235
   84DIO     F4 4664  10.503   0.240   6.117
   84DIO     O1 4665  10.090   0.310   6.362
   84DIO    C13 4666   9.995   0.248   6.281
   84DIO     O2 4667   9.994   0.138   6.220
   84DIO    C14 4668   9.866   0.317   6.281
   84DIO    C15 4669   9.800   0.359   6.407
   84DIO     F5 4670   9.862   0.342   6.525
   84DIO    C16 4671   9.669   0.422   6.409
   84DIO    C17 4672   9.593   0.440   6.286
   84DIO    C18 4673   9.662   0.416   6.160
   84DIO    C19 4674   9.794   0.354   6.157
   84DIO     F6 4675   9.856   0.348   6.038
   84DIO    C20 4676   9.453   0.495   6.288
   84DIO     O3 4677   9.383   0.470   6.411
   84DIO    C21 4678   9.339   0.336   6.423
   84DIO    C22 4679   9.250   0.296   6.306
   84DIO    C23 4680   9.331   0.322   6.178
   84DIO     O4 4681   9.375   0.457   6.173
   84DIO    C24 4682   9.117   0.375   6.301
   84DIO    C25 4683   9.027   0.360   6.423
   84DIO    C26 4684   8.988   0.217   6.455
   84DIO     H1 4685  10.709   0.392   6.212
   84DIO     H2 4686  10.668   0.063   6.504
   84DIO     H3 4687  10.491   0.271   6.581
   84DIO     H4 4688  10.239   0.300   6.575
   84DIO     H5 4689  10.240   0.262   6.140
   84DIO     H6 4690   9.631   0.458   6.504
   84DIO     H7 4691   9.619   0.448   6.066
   84DIO     H8 4692   9.462   0.604   6.282
   84DIO     H9 4693   9.426   0.269   6.430
   84DIO    H10 4694   9.286   0.326   6.518
   84DIO    H11 4695   9.228   0.189   6.312
   84DIO    H12 4696   9.270   0.304   6.090
   84DIO    H13 4697   9.417   0.254   6.172
   84DIO    H14 4698   9.137   0.482   6.286
   84DIO    H15 4699   9.061   0.342   6.213
   84DIO    H16 4700   9.074   0.406   6.511
   84DIO    H17 4701   8.935   0.418   6.405
   84DIO    H18 4702   8.944   0.167   6.368
   84DIO    H19 4703   9.075   0.159   6.488
   84DIO    H20 4704   8.915   0.215   6.536
   85DIO     F1 4705   8.206   8.695   1.587
   85DIO     C1 4706   8.128   8.781   1.518
   85DIO     C2 4707   7.984   8.764   1.521
   85DIO     C3 4708   7.895   8.855   1.445
   85DIO     C4 4709   7.961   8.964   1.369
   85DIO     C5 4710   8.105   8.979   1.368
   85DIO     F2 4711   8.160   9.082   1.301
   85DIO     C6 4712   8.189   8.888   1.443
   85DIO     F3 4713   8.322   8.902   1.440
   85DIO     C7 4714   7.749   8.839   1.445
   85DIO     C8 4715   7.672   8.836   1.318
   85DIO     C9 4716   7.527   8.821   1.319
   85DIO    C10 4717   7.454   8.818   1.444
   85DIO    C11 4718   7.527   8.813   1.570
   85DIO    C12 4719   7.671   8.826   1.570
   85DIO     F4 4720   7.736   8.827   1.688
   85DIO     O1 4721   7.322   8.780   1.438
   85DIO    C13 4722   7.228   8.834   1.524
   85DIO     O2 4723   7.227   8.938   1.596
   85DIO    C14 4724   7.099   8.765   1.518
   85DIO    C15 4725   7.032   8.735   1.389
   85DIO     F5 4726   7.095   8.764   1.272
   85DIO    C16 4727   6.901   8.673   1.380
   85DIO    C17 4728   6.826   8.643   1.501
   85DIO    C18 4729   6.894   8.655   1.629
   85DIO    C19 4730   7.026   8.716   1.637
   85DIO     F6 4731   7.089   8.711   1.757
   85DIO    C20 4732   6.685   8.589   1.494
   85DIO     O3 4733   6.615   8.625   1.374
   85DIO    C21 4734   6.572   8.760   1.374
   85DIO    C22 4735   6.483   8.789   1.495
   85DIO    C23 4736   6.563   8.751   1.619
   85DIO     O4 4737   6.608   8.615   1.611
   85DIO    C24 4738   6.350   8.710   1.492
   85DIO    C25 4739   6.259   8.735   1.372
   85DIO    C26 4740   6.221   8.881   1.354
   85DIO     H1 4741   7.941   8.684   1.579
   85DIO     H2 4742   7.900   9.039   1.319
   85DIO     H3 4743   7.723   8.840   1.223
   85DIO     H4 4744   7.472   8.810   1.226
   85DIO     H5 4745   7.472   8.806   1.663
   85DIO     H6 4746   6.863   8.646   1.282
   85DIO     H7 4747   6.852   8.614   1.720
   85DIO     H8 4748   6.695   8.480   1.490
   85DIO     H9 4749   6.658   8.827   1.374
   85DIO    H10 4750   6.519   8.779   1.281
   85DIO    H11 4751   6.460   8.896   1.499
   85DIO    H12 4752   6.502   8.760   1.709
   85DIO    H13 4753   6.650   8.817   1.632
   85DIO    H14 4754   6.370   8.602   1.497
   85DIO    H15 4755   6.293   8.734   1.583
   85DIO    H16 4756   6.307   8.698   1.280
   85DIO    H17 4757   6.167   8.676   1.384
   85DIO    H18 4758   6.177   8.922   1.445
   85DIO    H19 4759   6.307   8.942   1.326
   85DIO    H20 4760   6.147   8.891   1.273
   86DIO     F1 4761  10.399   7.102   8.231
   86DIO     C1 4762  10.321   7.160   8.324
   86DIO     C2 4763  10.177   7.160   8.307
   86DIO     C3 4764  10.088   7.224   8.406
   86DIO     C4 4765  10.154   7.287   8.524
   86DIO     C5 4766  10.298   7.286   8.538
   86DIO     F2 4767  10.354   7.340   8.649
   86DIO     C6 4768  10.382   7.222   8.439
   86DIO     F3 4769  10.516   7.223   8.453
   86DIO     C7 4770   9.942   7.226   8.390
   86DIO     C8 4771   9.865   7.352   8.402
   86DIO     C9 4772   9.720   7.353   8.387
   86DIO    C10 4773   9.648   7.229   8.370
   86DIO    C11 4774   9.720   7.105   8.350
   86DIO    C12 4775   9.864   7.104   8.363
   86DIO     F4 4776   9.929   6.986   8.349
   86DIO     O1 4777   9.515   7.240   8.332
   86DIO    C13 4778   9.421   7.148   8.376
   86DIO     O2 4779   9.420   7.065   8.470
   86DIO    C14 4780   9.292   7.163   8.308
   86DIO    C15 4781   9.225   7.294   8.294
   86DIO     F5 4782   9.288   7.406   8.336
   86DIO    C16 4783   9.095   7.310   8.233
   86DIO    C17 4784   9.019   7.194   8.189
   86DIO    C18 4785   9.088   7.065   8.186
   86DIO    C19 4786   9.219   7.050   8.246
   86DIO     F6 4787   9.282   6.932   8.226
   86DIO    C20 4788   8.878   7.207   8.136
   86DIO     O3 4789   8.808   7.322   8.186
   86DIO    C21 4790   8.765   7.305   8.320
   86DIO    C22 4791   8.676   7.182   8.334
   86DIO    C23 4792   8.757   7.063   8.282
   86DIO     O4 4793   8.801   7.087   8.149
   86DIO    C24 4794   8.543   7.194   8.256
   86DIO    C25 4795   8.452   7.311   8.296
   86DIO    C26 4796   8.414   7.312   8.443
   86DIO     H1 4797  10.135   7.111   8.220
   86DIO     H2 4798  10.093   7.327   8.604
   86DIO     H3 4799   9.916   7.446   8.417
   86DIO     H4 4800   9.665   7.447   8.387
   86DIO     H5 4801   9.666   7.013   8.332
   86DIO     H6 4802   9.057   7.410   8.218
   86DIO     H7 4803   9.045   6.980   8.134
   86DIO     H8 4804   8.888   7.224   8.028
   86DIO     H9 4805   8.851   7.298   8.387
   86DIO    H10 4806   8.712   7.396   8.350
   86DIO    H11 4807   8.653   7.165   8.440
   86DIO    H12 4808   8.696   6.973   8.281
   86DIO    H13 4809   8.843   7.043   8.347
   86DIO    H14 4810   8.563   7.202   8.149
   86DIO    H15 4811   8.487   7.101   8.270
   86DIO    H16 4812   8.500   7.406   8.270
   86DIO    H17 4813   8.361   7.305   8.236
   86DIO    H18 4814   8.370   7.216   8.473
   86DIO    H19 4815   8.501   7.332   8.507
   86DIO    H20 4816   8.340   7.390   8.462
   87DIO     F1 4817   5.505   6.673  -0.905
   87DIO     C1 4818   5.428   6.717  -0.804
   87DIO     C2 4819   5.284   6.719  -0.821
   87DIO     C3 4820   5.195   6.769  -0.714
   87DIO     C4 4821   5.260   6.815  -0.589
   87DIO     C5 4822   5.405   6.812  -0.574
   87DIO     F2 4823   5.460   6.850  -0.458
   87DIO     C6 4824   5.488   6.763  -0.681
   87DIO     F3 4825   5.622   6.761  -0.667
   87DIO     C7 4826   5.048   6.773  -0.729
   87DIO     C8 4827   4.971   6.896  -0.700
   87DIO     C9 4828   4.827   6.900  -0.714
   87DIO    C10 4829   4.754   6.779  -0.749
   87DIO    C11 4830   4.826   6.659  -0.786
   87DIO    C12 4831   4.971   6.656  -0.774
   87DIO     F4 4832   5.035   6.542  -0.803
   87DIO     O1 4833   4.622   6.795  -0.785
   87DIO    C13 4834   4.527   6.698  -0.754
   87DIO     O2 4835   4.526   6.602  -0.672
   87DIO    C14 4836   4.398   6.722  -0.820
   87DIO    C15 4837   4.332   6.854  -0.815
   87DIO     F5 4838   4.394   6.959  -0.758
   87DIO    C16 4839   4.201   6.878  -0.873
   87DIO    C17 4840   4.125   6.769  -0.933
   87DIO    C18 4841   4.194   6.642  -0.954
   87DIO    C19 4842   4.326   6.619  -0.897
   87DIO     F6 4843   4.388   6.505  -0.933
   87DIO    C20 4844   3.985   6.790  -0.984
   87DIO     O3 4845   3.915   6.897  -0.918
   87DIO    C21 4846   3.871   6.861  -0.787
   87DIO    C22 4847   3.782   6.738  -0.791
   87DIO    C23 4848   3.863   6.627  -0.859
   87DIO     O4 4849   3.907   6.670  -0.988
   87DIO    C24 4850   3.649   6.760  -0.866
   87DIO    C25 4851   3.559   6.871  -0.810
   87DIO    C26 4852   3.520   6.851  -0.665
   87DIO     H1 4853   5.241   6.683  -0.914
   87DIO     H2 4854   5.200   6.843  -0.503
   87DIO     H3 4855   5.023   6.987  -0.672
   87DIO     H4 4856   4.771   6.992  -0.701
   87DIO     H5 4857   4.772   6.571  -0.817
   87DIO     H6 4858   4.163   6.980  -0.874
   87DIO     H7 4859   4.151   6.566  -1.017
   87DIO     H8 4860   3.994   6.822  -1.088
   87DIO     H9 4861   3.958   6.845  -0.722
   87DIO    H10 4862   3.818   6.948  -0.745
   87DIO    H11 4863   3.760   6.706  -0.688
   87DIO    H12 4864   3.802   6.538  -0.873
   87DIO    H13 4865   3.949   6.598  -0.798
   87DIO    H14 4866   3.669   6.783  -0.972
   87DIO    H15 4867   3.593   6.666  -0.866
   87DIO    H16 4868   3.606   6.969  -0.823
   87DIO    H17 4869   3.467   6.873  -0.871
   87DIO    H18 4870   3.476   6.752  -0.649
   87DIO    H19 4871   3.607   6.861  -0.599
   87DIO    H20 4872   3.447   6.926  -0.635
   88DIO     F1 4873   4.143   6.878  10.177
   88DIO     C1 4874   4.066   6.986  10.197
   88DIO     C2 4875   3.922   6.973  10.186
   88DIO     C3 4876   3.833   7.090  10.204
   88DIO     C4 4877   3.898   7.219  10.237
   88DIO     C5 4878   4.043   7.229  10.247
   88DIO     F2 4879   4.098   7.347  10.281
   88DIO     C6 4880   4.126   7.113  10.228
   88DIO     F3 4881   4.260   7.124  10.237
   88DIO     C7 4882   3.687   7.080  10.192
   88DIO     C8 4883   3.609   7.173  10.107
   88DIO     C9 4884   3.465   7.163  10.096
   88DIO    C10 4885   3.392   7.066  10.176
   88DIO    C11 4886   3.465   6.968  10.255
   88DIO    C12 4887   3.609   6.977  10.265
   88DIO     F4 4888   3.674   6.888  10.343
   88DIO     O1 4889   3.260   7.046  10.143
   88DIO    C13 4890   3.165   7.017  10.241
   88DIO     O2 4891   3.165   7.031  10.366
   88DIO    C14 4892   3.036   6.976  10.184
   88DIO    C15 4893   2.970   7.054  10.077
   88DIO     F5 4894   3.033   7.160  10.023
   88DIO    C16 4895   2.839   7.020  10.025
   88DIO    C17 4896   2.763   6.909  10.082
   88DIO    C18 4897   2.832   6.820  10.175
   88DIO    C19 4898   2.964   6.854  10.226
   88DIO     F6 4899   3.026   6.760  10.301
   88DIO    C20 4900   2.623   6.878  10.036
   88DIO     O3 4901   2.553   6.992   9.984
   88DIO    C21 4902   2.509   7.081  10.087
   88DIO    C22 4903   2.420   7.009  10.187
   88DIO    C23 4904   2.501   6.890  10.240
   88DIO     O4 4905   2.545   6.807  10.133
   88DIO    C24 4906   2.288   6.959  10.126
   88DIO    C25 4907   2.197   7.067  10.066
   88DIO    C26 4908   2.159   7.176  10.165
   88DIO     H1 4909   3.879   6.876  10.163
   88DIO     H2 4910   3.838   7.306  10.261
   88DIO     H3 4911   3.661   7.247  10.048
   88DIO     H4 4912   3.410   7.225  10.027
   88DIO     H5 4913   3.410   6.893  10.311
   88DIO     H6 4914   2.801   7.076   9.941
   88DIO     H7 4915   2.789   6.725  10.203
   88DIO     H8 4916   2.632   6.810   9.951
   88DIO     H9 4917   2.596   7.125  10.137
   88DIO    H10 4918   2.457   7.164  10.039
   88DIO    H11 4919   2.398   7.076  10.271
   88DIO    H12 4920   2.440   6.828  10.307
   88DIO    H13 4921   2.587   6.924  10.299
   88DIO    H14 4922   2.308   6.884  10.048
   88DIO    H15 4923   2.231   6.906  10.204
   88DIO    H16 4924   2.244   7.112   9.978
   88DIO    H17 4925   2.105   7.018  10.030
   88DIO    H18 4926   2.115   7.134  10.256
   88DIO    H19 4927   2.245   7.237  10.193
   88DIO    H20 4928   2.085   7.243  10.119
   89DIO     F1 4929   1.150   7.791   5.768
   89DIO     C1 4930   1.072   7.683   5.789
   89DIO     C2 4931   0.928   7.699   5.795
   89DIO     C3 4932   0.839   7.583   5.820
   89DIO     C4 4933   0.905   7.451   5.836
   89DIO     C5 4934   1.049   7.438   5.830
   89DIO     F2 4935   1.104   7.316   5.841
   89DIO     C6 4936   1.133   7.553   5.806
   89DIO     F3 4937   1.266   7.540   5.802
   89DIO     C7 4938   0.693   7.598   5.827
   89DIO     C8 4939   0.616   7.542   5.940
   89DIO     C9 4940   0.471   7.555   5.947
   89DIO    C10 4941   0.398   7.616   5.837
   89DIO    C11 4942   0.471   7.679   5.728
   89DIO    C12 4943   0.615   7.667   5.722
   89DIO     F4 4944   0.680   7.721   5.617
   89DIO     O1 4945   0.266   7.647   5.861
   89DIO    C13 4946   0.172   7.639   5.759
   89DIO     O2 4947   0.171   7.580   5.647
   89DIO    C14 4948   0.042   7.697   5.797
   89DIO    C15 4949  -0.024   7.663   5.925
   89DIO     F5 4950   0.039   7.584   6.014
   89DIO    C16 4951  -0.155   7.714   5.961
   89DIO    C17 4952  -0.230   7.797   5.868
   89DIO    C18 4953  -0.162   7.846   5.749
   89DIO    C19 4954  -0.030   7.796   5.714
   89DIO     F6 4955   0.032   7.856   5.610
   89DIO    C20 4956  -0.371   7.842   5.900
   89DIO     O3 4957  -0.441   7.754   5.989
   89DIO    C21 4958  -0.485   7.635   5.926
   89DIO    C22 4959  -0.573   7.666   5.806
   89DIO    C23 4960  -0.493   7.757   5.714
   89DIO     O4 4961  -0.448   7.873   5.783
   89DIO    C24 4962  -0.706   7.734   5.845
   89DIO    C25 4963  -0.797   7.655   5.940
   89DIO    C26 4964  -0.835   7.518   5.888
   89DIO     H1 4965   0.885   7.798   5.780
   89DIO     H2 4966   0.844   7.362   5.845
   89DIO     H3 4967   0.667   7.494   6.022
   89DIO     H4 4968   0.416   7.522   6.034
   89DIO     H5 4969   0.416   7.728   5.649
   89DIO     H6 4970  -0.193   7.693   6.060
   89DIO     H7 4971  -0.205   7.925   5.688
   89DIO     H8 4972  -0.361   7.937   5.954
   89DIO     H9 4973  -0.398   7.575   5.895
   89DIO    H10 4974  -0.537   7.575   6.000
   89DIO    H11 4975  -0.596   7.573   5.752
   89DIO    H12 4976  -0.554   7.790   5.629
   89DIO    H13 4977  -0.407   7.704   5.671
   89DIO    H14 4978  -0.686   7.832   5.891
   89DIO    H15 4979  -0.763   7.755   5.753
   89DIO    H16 4980  -0.750   7.646   6.038
   89DIO    H17 4981  -0.889   7.713   5.956
   89DIO    H18 4982  -0.879   7.524   5.788
   89DIO    H19 4983  -0.749   7.451   5.884
   89DIO    H20 4984  -0.909   7.472   5.955
   90DIO     F1 4985   7.444   4.656   2.786
   90DIO     C1 4986   7.366   4.632   2.894
   90DIO     C2 4987   7.222   4.644   2.881
   90DIO     C3 4988   7.133   4.621   2.997
   90DIO     C4 4989   7.199   4.585   3.125
   90DIO     C5 4990   7.343   4.574   3.135
   90DIO     F2 4991   7.398   4.536   3.252
   90DIO     C6 4992   7.427   4.597   3.020
   90DIO     F3 4993   7.560   4.588   3.030
   90DIO     C7 4994   6.987   4.634   2.987
   90DIO     C8 4995   6.910   4.716   3.083
   90DIO     C9 4996   6.765   4.728   3.073
   90DIO    C10 4997   6.692   4.650   2.974
   90DIO    C11 4998   6.765   4.574   2.874
   90DIO    C12 4999   6.909   4.565   2.882
   90DIO     F4 5000   6.974   4.490   2.791
   90DIO     O1 5001   6.560   4.684   2.955
   90DIO    C13 5002   6.466   4.587   2.922
   90DIO     O2 5003   6.465   4.462   2.932
   90DIO    C14 5004   6.336   4.645   2.884
   90DIO    C15 5005   6.270   4.749   2.965
   90DIO     F5 5006   6.333   4.801   3.073
   90DIO    C16 5007   6.139   4.803   2.932
   90DIO    C17 5008   6.064   4.750   2.820
   90DIO    C18 5009   6.132   4.660   2.728
   90DIO    C19 5010   6.264   4.607   2.760
   90DIO     F6 5011   6.326   4.536   2.664
   90DIO    C20 5012   5.923   4.797   2.791
   90DIO     O3 5013   5.853   4.845   2.907
   90DIO    C21 5014   5.809   4.739   2.992
   90DIO    C22 5015   5.721   4.641   2.916
   90DIO    C23 5016   5.801   4.592   2.796
   90DIO     O4 5017   5.846   4.702   2.717
   90DIO    C24 5018   5.588   4.704   2.868
   90DIO    C25 5019   5.497   4.760   2.978
   90DIO    C26 5020   5.459   4.658   3.085
   90DIO     H1 5021   7.179   4.669   2.785
   90DIO     H2 5022   7.138   4.558   3.211
   90DIO     H3 5023   6.961   4.773   3.159
   90DIO     H4 5024   6.710   4.794   3.138
   90DIO     H5 5025   6.710   4.521   2.797
   90DIO     H6 5026   6.101   4.886   2.991
   90DIO     H7 5027   6.089   4.635   2.632
   90DIO     H8 5028   5.933   4.884   2.725
   90DIO     H9 5029   5.896   4.688   3.034
   90DIO    H10 5030   5.757   4.784   3.076
   90DIO    H11 5031   5.698   4.555   2.981
   90DIO    H12 5032   5.740   4.527   2.732
   90DIO    H13 5033   5.887   4.532   2.828
   90DIO    H14 5034   5.608   4.784   2.797
   90DIO    H15 5035   5.531   4.627   2.813
   90DIO    H16 5036   5.544   4.847   3.026
   90DIO    H17 5037   5.405   4.798   2.931
   90DIO    H18 5038   5.415   4.569   3.039
   90DIO    H19 5039   5.545   4.628   3.144
   90DIO    H20 5040   5.385   4.702   3.153
   91DIO     F1 5041   2.109   5.623   6.940
   91DIO     C1 5042   2.032   5.571   7.037
   91DIO     C2 5043   1.887   5.585   7.028
   91DIO     C3 5044   1.799   5.532   7.134
   91DIO     C4 5045   1.864   5.462   7.246
   91DIO     C5 5046   2.008   5.449   7.253
   91DIO     F2 5047   2.064   5.381   7.355
   91DIO     C6 5048   2.092   5.503   7.148
   91DIO     F3 5049   2.226   5.491   7.156
   91DIO     C7 5050   1.652   5.547   7.127
   91DIO     C8 5051   1.575   5.600   7.242
   91DIO     C9 5052   1.430   5.613   7.236
   91DIO    C10 5053   1.358   5.566   7.119
   91DIO    C11 5054   1.430   5.521   7.002
   91DIO    C12 5055   1.574   5.509   7.007
   91DIO     F4 5056   1.639   5.462   6.899
   91DIO     O1 5057   1.226   5.604   7.110
   91DIO    C13 5058   1.131   5.520   7.052
   91DIO     O2 5059   1.130   5.396   7.028
   91DIO    C14 5060   1.002   5.586   7.031
   91DIO    C15 5061   0.936   5.664   7.138
   91DIO     F5 5062   0.998   5.684   7.256
   91DIO    C16 5063   0.805   5.725   7.121
   91DIO    C17 5064   0.729   5.704   6.998
   91DIO    C18 5065   0.798   5.643   6.885
   91DIO    C19 5066   0.930   5.583   6.902
   91DIO     F6 5067   0.992   5.541   6.790
   91DIO    C20 5068   0.588   5.757   6.983
   91DIO     O3 5069   0.519   5.771   7.107
   91DIO    C21 5070   0.475   5.647   7.160
   91DIO    C22 5071   0.386   5.573   7.061
   91DIO    C23 5072   0.467   5.559   6.932
   91DIO     O4 5073   0.511   5.686   6.886
   91DIO    C24 5074   0.253   5.647   7.032
   91DIO    C25 5075   0.163   5.671   7.153
   91DIO    C26 5076   0.124   5.544   7.228
   91DIO     H1 5077   1.845   5.636   6.942
   91DIO     H2 5078   1.804   5.412   7.322
   91DIO     H3 5079   1.627   5.634   7.331
   91DIO     H4 5080   1.375   5.660   7.316
   91DIO     H5 5081   1.376   5.490   6.913
   91DIO     H6 5082   0.767   5.788   7.200
   91DIO     H7 5083   0.755   5.645   6.786
   91DIO     H8 5084   0.598   5.859   6.943
   91DIO     H9 5085   0.562   5.586   7.187
   91DIO    H10 5086   0.422   5.667   7.254
   91DIO    H11 5087   0.364   5.473   7.099
   91DIO    H12 5088   0.406   5.514   6.853
   91DIO    H13 5089   0.553   5.493   6.947
   91DIO    H14 5090   0.273   5.744   6.985
   91DIO    H15 5091   0.197   5.588   6.958
   91DIO    H16 5092   0.210   5.741   7.223
   91DIO    H17 5093   0.071   5.720   7.118
   91DIO    H18 5094   0.080   5.470   7.160
   91DIO    H19 5095   0.211   5.499   7.277
   91DIO    H20 5096   0.051   5.567   7.305
   92DIO     F1 5097   9.065   6.218   1.277
   92DIO     C1 5098   8.987   6.208   1.386
   92DIO     C2 5099   8.843   6.218   1.372
   92DIO     C3 5100   8.754   6.209   1.491
   92DIO     C4 5101   8.820   6.188   1.622
   92DIO     C5 5102   8.964   6.178   1.633
   92DIO     F2 5103   9.019   6.155   1.753
   92DIO     C6 5104   9.048   6.188   1.516
   92DIO     F3 5105   9.181   6.180   1.527
   92DIO     C7 5106   8.608   6.220   1.479
   92DIO     C8 5107   8.531   6.313   1.564
   92DIO     C9 5108   8.386   6.324   1.553
   92DIO    C10 5109   8.313   6.235   1.464
   92DIO    C11 5110   8.386   6.148   1.373
   92DIO    C12 5111   8.530   6.140   1.383
   92DIO     F4 5112   8.595   6.054   1.301
   92DIO     O1 5113   8.181   6.267   1.441
   92DIO    C13 5114   8.087   6.167   1.420
   92DIO     O2 5115   8.086   6.043   1.445
   92DIO    C14 5116   7.957   6.220   1.375
   92DIO    C15 5117   7.891   6.333   1.444
   92DIO     F5 5118   7.954   6.396   1.545
   92DIO    C16 5119   7.760   6.382   1.405
   92DIO    C17 5120   7.685   6.316   1.299
   92DIO    C18 5121   7.753   6.216   1.219
   92DIO    C19 5122   7.885   6.168   1.257
   92DIO     F6 5123   7.947   6.085   1.170
   92DIO    C20 5124   7.544   6.359   1.265
   92DIO     O3 5125   7.474   6.420   1.374
   92DIO    C21 5126   7.430   6.326   1.471
   92DIO    C22 5127   7.342   6.219   1.408
   92DIO    C23 5128   7.422   6.156   1.294
   92DIO     O4 5129   7.467   6.256   1.202
   92DIO    C24 5130   7.209   6.276   1.353
   92DIO    C25 5131   7.118   6.345   1.455
   92DIO    C26 5132   7.080   6.256   1.573
   92DIO     H1 5133   8.800   6.232   1.274
   92DIO     H2 5134   8.759   6.171   1.710
   92DIO     H3 5135   8.582   6.379   1.633
   92DIO     H4 5136   8.331   6.398   1.610
   92DIO     H5 5137   8.331   6.086   1.303
   92DIO     H6 5138   7.722   6.471   1.454
   92DIO     H7 5139   7.710   6.179   1.126
   92DIO     H8 5140   7.554   6.438   1.189
   92DIO     H9 5141   7.517   6.279   1.520
   92DIO    H10 5142   7.378   6.380   1.550
   92DIO    H11 5143   7.319   6.142   1.482
   92DIO    H12 5144   7.361   6.085   1.238
   92DIO    H13 5145   7.508   6.101   1.333
   92DIO    H14 5146   7.229   6.348   1.272
   92DIO    H15 5147   7.152   6.194   1.307
   92DIO    H16 5148   7.165   6.437   1.492
   92DIO    H17 5149   7.026   6.377   1.404
   92DIO    H18 5150   7.036   6.162   1.539
   92DIO    H19 5151   7.166   6.234   1.636
   92DIO    H20 5152   7.006   6.307   1.636
   93DIO     F1 5153   8.534   4.793   5.368
   93DIO     C1 5154   8.456   4.825   5.262
   93DIO     C2 5155   8.312   4.813   5.274
   93DIO     C3 5156   8.223   4.844   5.160
   93DIO     C4 5157   8.289   4.891   5.035
   93DIO     C5 5158   8.433   4.903   5.026
   93DIO     F2 5159   8.488   4.949   4.913
   93DIO     C6 5160   8.517   4.870   5.139
   93DIO     F3 5161   8.650   4.880   5.129
   93DIO     C7 5162   8.077   4.831   5.169
   93DIO     C8 5163   8.000   4.757   5.067
   93DIO     C9 5164   7.855   4.744   5.076
   93DIO    C10 5165   7.782   4.814   5.180
   93DIO    C11 5166   7.855   4.881   5.287
   93DIO    C12 5167   7.999   4.891   5.279
   93DIO     F4 5168   8.064   4.959   5.376
   93DIO     O1 5169   7.650   4.778   5.197
   93DIO    C13 5170   7.556   4.872   5.237
   93DIO     O2 5171   7.555   4.998   5.237
   93DIO    C14 5172   7.427   4.811   5.271
   93DIO    C15 5173   7.360   4.714   5.181
   93DIO     F5 5174   7.423   4.671   5.070
   93DIO    C16 5175   7.229   4.658   5.210
   93DIO    C17 5176   7.154   4.702   5.326
   93DIO    C18 5177   7.222   4.785   5.425
   93DIO    C19 5178   7.354   4.839   5.397
   93DIO     F6 5179   7.417   4.903   5.498
   93DIO    C20 5180   7.013   4.653   5.351
   93DIO     O3 5181   6.943   4.615   5.232
   93DIO    C21 5182   6.900   4.726   5.156
   93DIO    C22 5183   6.811   4.818   5.239
   93DIO    C23 5184   6.891   4.857   5.363
   93DIO     O4 5185   6.936   4.742   5.433
   93DIO    C24 5186   6.678   4.752   5.282
   93DIO    C25 5187   6.587   4.704   5.168
   93DIO    C26 5188   6.549   4.814   5.070
   93DIO     H1 5189   8.269   4.780   5.368
   93DIO     H2 5190   8.228   4.925   4.952
   93DIO     H3 5191   8.051   4.706   4.986
   93DIO     H4 5192   7.800   4.683   5.006
   93DIO     H5 5193   7.800   4.928   5.367
   93DIO     H6 5194   7.191   4.580   5.144
   93DIO     H7 5195   7.180   4.802   5.523
   93DIO     H8 5196   7.023   4.561   5.410
   93DIO     H9 5197   6.986   4.781   5.117
   93DIO    H10 5198   6.847   4.688   5.068
   93DIO    H11 5199   6.788   4.909   5.182
   93DIO    H12 5200   6.830   4.917   5.431
   93DIO    H13 5201   6.978   4.920   5.335
   93DIO    H14 5202   6.698   4.666   5.347
   93DIO    H15 5203   6.621   4.824   5.342
   93DIO    H16 5204   6.635   4.622   5.113
   93DIO    H17 5205   6.495   4.663   5.212
   93DIO    H18 5206   6.505   4.900   5.122
   93DIO    H19 5207   6.635   4.849   5.012
   93DIO    H20 5208   6.475   4.776   4.998
   94DIO     F1 5209   9.852   1.801   3.590
   94DIO     C1 5210   9.774   1.738   3.680
   94DIO     C2 5211   9.630   1.753   3.673
   94DIO     C3 5212   9.541   1.687   3.772
   94DIO     C4 5213   9.607   1.604   3.875
   94DIO     C5 5214   9.751   1.590   3.880
   94DIO     F2 5215   9.807   1.510   3.973
   94DIO     C6 5216   9.835   1.656   3.783
   94DIO     F3 5217   9.969   1.643   3.789
   94DIO     C7 5218   9.395   1.703   3.767
   94DIO     C8 5219   9.318   1.741   3.887
   94DIO     C9 5220   9.173   1.756   3.883
   94DIO    C10 5221   9.101   1.723   3.762
   94DIO    C11 5222   9.173   1.692   3.640
   94DIO    C12 5223   9.317   1.680   3.644
   94DIO     F4 5224   9.382   1.646   3.530
   94DIO     O1 5225   8.968   1.762   3.757
   94DIO    C13 5226   8.874   1.685   3.689
   94DIO     O2 5227   8.873   1.565   3.650
   94DIO    C14 5228   8.745   1.753   3.676
   94DIO    C15 5229   8.678   1.818   3.792
   94DIO     F5 5230   8.741   1.823   3.911
   94DIO    C16 5231   8.548   1.880   3.782
   94DIO    C17 5232   8.472   1.875   3.658
   94DIO    C18 5233   8.541   1.827   3.538
   94DIO    C19 5234   8.672   1.766   3.548
   94DIO     F6 5235   8.735   1.738   3.431
   94DIO    C20 5236   8.331   1.929   3.649
   94DIO     O3 5237   8.261   1.928   3.774
   94DIO    C21 5238   8.218   1.798   3.812
   94DIO    C22 5239   8.129   1.737   3.704
   94DIO    C23 5240   8.210   1.738   3.575
   94DIO     O4 5241   8.254   1.870   3.544
   94DIO    C24 5242   7.996   1.813   3.685
   94DIO    C25 5243   7.905   1.823   3.808
   94DIO    C26 5244   7.867   1.688   3.866
   94DIO     H1 5245   9.588   1.814   3.594
   94DIO     H2 5246   9.546   1.546   3.944
   94DIO     H3 5247   9.369   1.764   3.980
   94DIO     H4 5248   9.118   1.792   3.968
   94DIO     H5 5249   9.119   1.673   3.548
   94DIO     H6 5250   8.510   1.933   3.869
   94DIO     H7 5251   8.498   1.841   3.440
   94DIO     H8 5252   8.341   2.035   3.622
   94DIO     H9 5253   8.304   1.734   3.832
   94DIO    H10 5254   8.165   1.807   3.908
   94DIO    H11 5255   8.106   1.633   3.731
   94DIO    H12 5256   8.149   1.703   3.491
   94DIO    H13 5257   8.296   1.671   3.582
   94DIO    H14 5258   8.016   1.915   3.650
   94DIO    H15 5259   7.940   1.764   3.604
   94DIO    H16 5260   7.953   1.884   3.885
   94DIO    H17 5261   7.814   1.876   3.779
   94DIO    H18 5262   7.823   1.623   3.790
   94DIO    H19 5263   7.954   1.637   3.910
   94DIO    H20 5264   7.793   1.701   3.946
   95DIO     F1 5265   8.026   1.522  10.052
   95DIO     C1 5266   7.949   1.571  10.151
   95DIO     C2 5267   7.805   1.572  10.134
   95DIO     C3 5268   7.716   1.627  10.239
   95DIO     C4 5269   7.781   1.678  10.362
   95DIO     C5 5270   7.926   1.676  10.376
   95DIO     F2 5271   7.981   1.719  10.491
   95DIO     C6 5272   8.009   1.622  10.272
   95DIO     F3 5273   8.143   1.621  10.286
   95DIO     C7 5274   7.569   1.630  10.223
   95DIO     C8 5275   7.492   1.754  10.247
   95DIO     C9 5276   7.348   1.757  10.232
   95DIO    C10 5277   7.275   1.635  10.203
   95DIO    C11 5278   7.347   1.513  10.172
   95DIO    C12 5279   7.492   1.511  10.184
   95DIO     F4 5280   7.556   1.395  10.160
   95DIO     O1 5281   7.143   1.650  10.167
   95DIO    C13 5282   7.048   1.554  10.202
   95DIO     O2 5283   7.047   1.462  10.288
   95DIO    C14 5284   6.919   1.575  10.135
   95DIO    C15 5285   6.853   1.707  10.134
   95DIO     F5 5286   6.915   1.815  10.186
   95DIO    C16 5287   6.722   1.729  10.075
   95DIO    C17 5288   6.646   1.617  10.020
   95DIO    C18 5289   6.715   1.489  10.005
   95DIO    C19 5290   6.847   1.468  10.062
   95DIO     F6 5291   6.909   1.353  10.032
   95DIO    C20 5292   6.506   1.635   9.968
   95DIO     O3 5293   6.436   1.745  10.029
   95DIO    C21 5294   6.392   1.716  10.161
   95DIO    C22 5295   6.303   1.592  10.163
   95DIO    C23 5296   6.384   1.479  10.100
   95DIO     O4 5297   6.428   1.515   9.969
   95DIO    C24 5298   6.170   1.611  10.087
   95DIO    C25 5299   6.080   1.724  10.138
   95DIO    C26 5300   6.041   1.710  10.284
   95DIO     H1 5301   7.762   1.532  10.043
   95DIO     H2 5302   7.721   1.710  10.446
   95DIO     H3 5303   7.544   1.846  10.271
   95DIO     H4 5304   7.292   1.850  10.241
   95DIO     H5 5305   7.293   1.424  10.145
   95DIO     H6 5306   6.684   1.830  10.070
   95DIO     H7 5307   6.672   1.410   9.945
   95DIO     H8 5308   6.515   1.663   9.863
   95DIO     H9 5309   6.479   1.702  10.227
   95DIO    H10 5310   6.339   1.804  10.199
   95DIO    H11 5311   6.281   1.565  10.267
   95DIO    H12 5312   6.323   1.388  10.090
   95DIO    H13 5313   6.470   1.452  10.162
   95DIO    H14 5314   6.190   1.629   9.980
   95DIO    H15 5315   6.114   1.517  10.091
   95DIO    H16 5316   6.127   1.821  10.121
   95DIO    H17 5317   5.988   1.724  10.077
   95DIO    H18 5318   5.997   1.612  10.305
   95DIO    H19 5319   6.128   1.724  10.350
   95DIO    H20 5320   5.968   1.787  10.310
   96DIO     F1 5321   8.047   2.271   9.402
   96DIO     C1 5322   7.970   2.234   9.298
   96DIO     C2 5323   7.826   2.231   9.315
   96DIO     C3 5324   7.737   2.189   9.204
   96DIO     C4 5325   7.802   2.154   9.076
   96DIO     C5 5326   7.947   2.158   9.062
   96DIO     F2 5327   8.002   2.129   8.943
   96DIO     C6 5328   8.030   2.199   9.172
   96DIO     F3 5329   8.164   2.201   9.158
   96DIO     C7 5330   7.591   2.184   9.219
   96DIO     C8 5331   7.513   2.064   9.181
   96DIO     C9 5332   7.369   2.059   9.195
   96DIO    C10 5333   7.296   2.177   9.239
   96DIO    C11 5334   7.369   2.294   9.285
   96DIO    C12 5335   7.513   2.298   9.273
   96DIO     F4 5336   7.578   2.410   9.311
   96DIO     O1 5337   7.164   2.158   9.273
   96DIO    C13 5338   7.069   2.258   9.250
   96DIO     O2 5339   7.069   2.359   9.176
   96DIO    C14 5340   6.940   2.228   9.314
   96DIO    C15 5341   6.874   2.097   9.298
   96DIO     F5 5342   6.937   1.997   9.233
   96DIO    C16 5343   6.743   2.068   9.354
   96DIO    C17 5344   6.667   2.173   9.423
   96DIO    C18 5345   6.736   2.297   9.454
   96DIO    C19 5346   6.868   2.325   9.399
   96DIO     F6 5347   6.930   2.436   9.444
   96DIO    C20 5348   6.527   2.148   9.472
   96DIO     O3 5349   6.457   2.047   9.398
   96DIO    C21 5350   6.413   2.092   9.270
   96DIO    C22 5351   6.324   2.215   9.284
   96DIO    C23 5352   6.405   2.320   9.360
   96DIO     O4 5353   6.449   2.268   9.485
   96DIO    C24 5354   6.192   2.187   9.357
   96DIO    C25 5355   6.101   2.081   9.293
   96DIO    C26 5356   6.063   2.112   9.149
   96DIO     H1 5357   7.783   2.260   9.410
   96DIO     H2 5358   7.742   2.132   8.989
   96DIO     H3 5359   7.565   1.976   9.145
   96DIO     H4 5360   7.314   1.969   9.174
   96DIO     H5 5361   7.314   2.380   9.323
   96DIO     H6 5362   6.705   1.967   9.347
   96DIO     H7 5363   6.693   2.369   9.523
   96DIO     H8 5364   6.536   2.108   9.573
   96DIO     H9 5365   6.500   2.114   9.207
   96DIO    H10 5366   6.361   2.009   9.222
   96DIO    H11 5367   6.302   2.255   9.184
   96DIO    H12 5368   6.344   2.408   9.381
   96DIO    H13 5369   6.491   2.354   9.302
   96DIO    H14 5370   6.212   2.155   9.461
   96DIO    H15 5371   6.135   2.280   9.364
   96DIO    H16 5372   6.148   1.982   9.298
   96DIO    H17 5373   6.009   2.074   9.353
   96DIO    H18 5374   6.019   2.212   9.141
   96DIO    H19 5375   6.149   2.107   9.082
   96DIO    H20 5376   5.989   2.040   9.113
   97DIO     F1 5377   7.854   8.096   8.014
   97DIO     C1 5378   7.776   7.987   8.030
   97DIO     C2 5379   7.632   8.003   8.036
   97DIO     C3 5380   7.544   7.886   8.055
   97DIO     C4 5381   7.609   7.754   8.065
   97DIO     C5 5382   7.753   7.741   8.058
   97DIO     F2 5383   7.809   7.618   8.063
   97DIO     C6 5384   7.837   7.857   8.040
   97DIO     F3 5385   7.971   7.844   8.035
   97DIO     C7 5386   7.397   7.900   8.063
   97DIO     C8 5387   7.320   7.838   8.173
   97DIO     C9 5388   7.175   7.852   8.181
   97DIO    C10 5389   7.103   7.918   8.074
   97DIO    C11 5390   7.175   7.986   7.968
   97DIO    C12 5391   7.319   7.975   7.962
   97DIO     F4 5392   7.384   8.035   7.860
   97DIO     O1 5393   6.971   7.948   8.100
   97DIO    C13 5394   6.876   7.945   7.997
   97DIO     O2 5395   6.875   7.892   7.883
   97DIO    C14 5396   6.747   8.001   8.038
   97DIO    C15 5397   6.681   7.960   8.164
   97DIO     F5 5398   6.743   7.877   8.250
   97DIO    C16 5399   6.550   8.010   8.203
   97DIO    C17 5400   6.474   8.097   8.115
   97DIO    C18 5401   6.543   8.152   7.998
   97DIO    C19 5402   6.674   8.104   7.960
   97DIO     F6 5403   6.737   8.170   7.860
   97DIO    C20 5404   6.333   8.140   8.149
   97DIO     O3 5405   6.264   8.048   8.233
   97DIO    C21 5406   6.220   7.932   8.164
   97DIO    C22 5407   6.131   7.969   8.046
   97DIO    C23 5408   6.212   8.065   7.958
   97DIO     O4 5409   6.256   8.177   8.034
   97DIO    C24 5410   5.998   8.036   8.088
   97DIO    C25 5411   5.908   7.952   8.179
   97DIO    C26 5412   5.869   7.817   8.120
   97DIO     H1 5413   7.590   8.102   8.027
   97DIO     H2 5414   7.548   7.664   8.069
   97DIO     H3 5415   7.372   7.787   8.253
   97DIO     H4 5416   7.120   7.814   8.266
   97DIO     H5 5417   7.121   8.040   7.892
   97DIO     H6 5418   6.512   7.983   8.301
   97DIO     H7 5419   6.500   8.234   7.942
   97DIO     H8 5420   6.343   8.232   8.208
   97DIO     H9 5421   6.307   7.874   8.130
   97DIO    H10 5422   6.167   7.868   8.235
   97DIO    H11 5423   6.109   7.879   7.987
   97DIO    H12 5424   6.151   8.103   7.876
   97DIO    H13 5425   6.298   8.014   7.913
   97DIO    H14 5426   6.018   8.131   8.139
   97DIO    H15 5427   5.942   8.061   7.997
   97DIO    H16 5428   5.955   7.937   8.277
   97DIO    H17 5429   5.816   8.009   8.198
   97DIO    H18 5430   5.825   7.828   8.020
   97DIO    H19 5431   5.956   7.751   8.112
   97DIO    H20 5432   5.796   7.768   8.184
   98DIO     F1 5433  10.974   6.465  10.388
   98DIO     C1 5434  10.897   6.378  10.321
   98DIO     C2 5435  10.753   6.384  10.337
   98DIO     C3 5436  10.664   6.289  10.267
   98DIO     C4 5437  10.729   6.189  10.179
   98DIO     C5 5438  10.874   6.185  10.165
   98DIO     F2 5439  10.929   6.095  10.081
   98DIO     C6 5440  10.957   6.279  10.235
   98DIO     F3 5441  11.091   6.273  10.222
   98DIO     C7 5442  10.517   6.293  10.282
   98DIO     C8 5443  10.440   6.171  10.316
   98DIO     C9 5444  10.296   6.175  10.330
   98DIO    C10 5445  10.223   6.297  10.303
   98DIO    C11 5446  10.295   6.421  10.277
   98DIO    C12 5447  10.440   6.417  10.265
   98DIO     F4 5448  10.504   6.532  10.236
   98DIO     O1 5449  10.091   6.300  10.342
   98DIO    C13 5450   9.996   6.371  10.268
   98DIO     O2 5451   9.995   6.416  10.150
   98DIO    C14 5452   9.867   6.381  10.337
   98DIO    C15 5453   9.801   6.263  10.396
   98DIO     F5 5454   9.863   6.143  10.397
   98DIO    C16 5455   9.670   6.270  10.459
   98DIO    C17 5456   9.594   6.394  10.459
   98DIO    C18 5457   9.663   6.516  10.417
   98DIO    C19 5458   9.795   6.509  10.356
   98DIO     F6 5459   9.857   6.626  10.332
   98DIO    C20 5460   9.454   6.400  10.514
   98DIO     O3 5461   9.384   6.275  10.507
   98DIO    C21 5462   9.340   6.243  10.376
   98DIO    C22 5463   9.251   6.354  10.319
   98DIO    C23 5464   9.332   6.483  10.326
   98DIO     O4 5465   9.376   6.508  10.460
   98DIO    C24 5466   9.118   6.370  10.397
   98DIO    C25 5467   9.028   6.247  10.400
   98DIO    C26 5468   8.989   6.194  10.263
   98DIO     H1 5469  10.710   6.460  10.401
   98DIO     H2 5470  10.669   6.123  10.118
   98DIO     H3 5471  10.492   6.078  10.335
   98DIO     H4 5472  10.240   6.088  10.363
   98DIO     H5 5473  10.241   6.513  10.262
   98DIO     H6 5474   9.632   6.181  10.508
   98DIO     H7 5475   9.620   6.613  10.435
   98DIO     H8 5476   9.463   6.423  10.621
   98DIO     H9 5477   9.427   6.227  10.311
   98DIO    H10 5478   9.287   6.148  10.380
   98DIO    H11 5479   9.229   6.332  10.214
   98DIO    H12 5480   9.271   6.569  10.295
   98DIO    H13 5481   9.418   6.480  10.259
   98DIO    H14 5482   9.138   6.401  10.500
   98DIO    H15 5483   9.062   6.452  10.351
   98DIO    H16 5484   9.075   6.167  10.458
   98DIO    H17 5485   8.936   6.273  10.455
   98DIO    H18 5486   8.945   6.273  10.201
   98DIO    H19 5487   9.076   6.153  10.210
   98DIO    H20 5488   8.916   6.114  10.273
   99DIO     F1 5489   7.163   4.932   7.302
   99DIO     C1 5490   7.085   4.996   7.213
   99DIO     C2 5491   6.941   4.981   7.220
   99DIO     C3 5492   6.852   5.048   7.123
   99DIO     C4 5493   6.918   5.133   7.020
   99DIO     C5 5494   7.062   5.147   7.016
   99DIO     F2 5495   7.118   5.229   6.924
   99DIO     C6 5496   7.146   5.080   7.112
   99DIO     F3 5497   7.280   5.092   7.106
   99DIO     C7 5498   6.706   5.033   7.127
   99DIO     C8 5499   6.629   4.996   7.006
   99DIO     C9 5500   6.484   4.982   7.010
   99DIO    C10 5501   6.412   5.013   7.132
   99DIO    C11 5502   6.484   5.042   7.255
   99DIO    C12 5503   6.628   5.054   7.251
   99DIO     F4 5504   6.693   5.086   7.365
   99DIO     O1 5505   6.279   4.974   7.136
   99DIO    C13 5506   6.185   5.049   7.205
   99DIO     O2 5507   6.184   5.168   7.246
   99DIO    C14 5508   6.056   4.981   7.217
   99DIO    C15 5509   5.990   4.918   7.100
   99DIO     F5 5510   6.052   4.914   6.981
   99DIO    C16 5511   5.859   4.856   7.109
   99DIO    C17 5512   5.783   4.859   7.233
   99DIO    C18 5513   5.852   4.905   7.354
   99DIO    C19 5514   5.983   4.966   7.345
   99DIO     F6 5515   6.046   4.992   7.462
   99DIO    C20 5516   5.642   4.805   7.241
   99DIO     O3 5517   5.573   4.807   7.116
   99DIO    C21 5518   5.529   4.938   7.080
   99DIO    C22 5519   5.440   4.998   7.189
   99DIO    C23 5520   5.521   4.994   7.319
   99DIO     O4 5521   5.565   4.862   7.347
   99DIO    C24 5522   5.307   4.921   7.207
   99DIO    C25 5523   5.217   4.914   7.084
   99DIO    C26 5524   5.178   5.049   7.028
   99DIO     H1 5525   6.899   4.919   7.298
   99DIO     H2 5526   6.857   5.193   6.953
   99DIO     H3 5527   6.680   4.975   6.914
   99DIO     H4 5528   6.429   4.947   6.924
   99DIO     H5 5529   6.430   5.059   7.346
   99DIO     H6 5530   5.821   4.804   7.022
   99DIO     H7 5531   5.809   4.889   7.452
   99DIO     H8 5532   5.652   4.698   7.266
   99DIO     H9 5533   5.616   5.002   7.062
   99DIO    H10 5534   5.476   4.931   6.985
   99DIO    H11 5535   5.417   5.102   7.164
   99DIO    H12 5536   5.460   5.028   7.403
   99DIO    H13 5537   5.607   5.062   7.313
   99DIO    H14 5538   5.327   4.818   7.241
   99DIO    H15 5539   5.251   4.969   7.289
   99DIO    H16 5540   5.264   4.853   7.006
   99DIO    H17 5541   5.125   4.860   7.112
   99DIO    H18 5542   5.134   5.113   7.105
   99DIO    H19 5543   5.265   5.101   6.985
   99DIO    H20 5544   5.104   5.037   6.948
  100DIO     F1 5545   1.229  -0.030   0.155
  100DIO     C1 5546   1.152   0.066   0.101
  100DIO     C2 5547   1.008   0.049   0.100
  100DIO     C3 5548   0.919   0.151   0.040
  100DIO     C4 5549   0.984   0.271  -0.017
  100DIO     C5 5550   1.129   0.285  -0.016
  100DIO     F2 5551   1.184   0.398  -0.065
  100DIO     C6 5552   1.212   0.184   0.043
  100DIO     F3 5553   1.346   0.198   0.043
  100DIO     C7 5554   0.773   0.135   0.038
  100DIO     C8 5555   0.695   0.152  -0.088
  100DIO     C9 5556   0.551   0.137  -0.090
  100DIO    C10 5557   0.478   0.115   0.034
  100DIO    C11 5558   0.551   0.090   0.157
  100DIO    C12 5559   0.695   0.102   0.159
  100DIO     F4 5560   0.760   0.084   0.276
  100DIO     O1 5561   0.346   0.078   0.021
  100DIO    C13 5562   0.251   0.118   0.115
  100DIO     O2 5563   0.251   0.209   0.202
  100DIO    C14 5564   0.122   0.050   0.098
  100DIO    C15 5565   0.056   0.042  -0.035
  100DIO     F5 5566   0.119   0.089  -0.145
  100DIO    C16 5567  -0.075  -0.018  -0.053
  100DIO    C17 5568  -0.151  -0.067   0.062
  100DIO    C18 5569  -0.082  -0.076   0.190
  100DIO    C19 5570   0.050  -0.017   0.208
  100DIO     F6 5571   0.112  -0.041   0.325
  100DIO    C20 5572  -0.291  -0.120   0.046
  100DIO     O3 5573  -0.361  -0.065  -0.067
  100DIO    C21 5574  -0.405   0.069  -0.044
  100DIO    C22 5575  -0.494   0.077   0.079
  100DIO    C23 5576  -0.413   0.020   0.196
  100DIO     O4 5577  -0.369  -0.112   0.166
  100DIO    C24 5578  -0.626  -0.000   0.064
  100DIO    C25 5579  -0.717   0.045  -0.051
  100DIO    C26 5580  -0.755   0.192  -0.046
  100DIO     H1 5581   0.965  -0.040   0.145
  100DIO     H2 5582   0.924   0.353  -0.054
  100DIO     H3 5583   0.747   0.171  -0.181
  100DIO     H4 5584   0.496   0.142  -0.183
  100DIO     H5 5585   0.496   0.068   0.248
  100DIO     H6 5586  -0.113  -0.029  -0.154
  100DIO     H7 5587  -0.125  -0.131   0.273
  100DIO     H8 5588  -0.282  -0.227   0.024
  100DIO     H9 5589  -0.318   0.135  -0.034
  100DIO    H10 5590  -0.457   0.102  -0.134
  100DIO    H11 5591  -0.516   0.182   0.100
  100DIO    H12 5592  -0.474   0.015   0.286
  100DIO    H13 5593  -0.327   0.084   0.219
  100DIO    H14 5594  -0.606  -0.107   0.051
  100DIO    H15 5595  -0.683   0.010   0.158
  100DIO    H16 5596  -0.670   0.023  -0.148
  100DIO    H17 5597  -0.809  -0.015  -0.048
  100DIO    H18 5598  -0.799   0.218   0.051
  100DIO    H19 5599  -0.669   0.256  -0.063
  100DIO    H20 5600  -0.829   0.214  -0.123
  101DIO     F1 5601   9.043   5.099   9.613
  101DIO     C1 5602   8.965   5.209   9.609
  101DIO     C2 5603   8.821   5.194   9.601
  101DIO     C3 5604   8.732   5.312   9.594
  101DIO     C4 5605   8.798   5.445   9.598
  101DIO     C5 5606   8.942   5.457   9.606
  101DIO     F2 5607   8.998   5.580   9.614
  101DIO     C6 5608   9.026   5.340   9.612
  101DIO     F3 5609   9.160   5.353   9.618
  101DIO     C7 5610   8.586   5.299   9.584
  101DIO     C8 5611   8.509   5.372   9.481
  101DIO     C9 5612   8.364   5.360   9.472
  101DIO    C10 5613   8.292   5.283   9.572
  101DIO    C11 5614   8.364   5.204   9.670
  101DIO    C12 5615   8.508   5.215   9.677
  101DIO     F4 5616   8.573   5.145   9.772
  101DIO     O1 5617   8.159   5.256   9.543
  101DIO    C13 5618   8.065   5.248   9.645
  101DIO     O2 5619   8.064   5.289   9.764
  101DIO    C14 5620   7.936   5.196   9.598
  101DIO    C15 5621   7.870   5.250   9.478
  101DIO     F5 5622   7.932   5.342   9.401
  101DIO    C16 5623   7.739   5.205   9.434
  101DIO    C17 5624   7.663   5.109   9.513
  101DIO    C18 5625   7.732   5.042   9.623
  101DIO    C19 5626   7.863   5.086   9.666
  101DIO     F6 5627   7.926   5.010   9.758
  101DIO    C20 5628   7.522   5.069   9.474
  101DIO     O3 5629   7.453   5.170   9.400
  101DIO    C21 5630   7.409   5.278   9.481
  101DIO    C22 5631   7.320   5.229   9.595
  101DIO    C23 5632   7.401   5.124   9.672
  101DIO     O4 5633   7.445   5.021   9.585
  101DIO    C24 5634   7.187   5.167   9.545
  101DIO    C25 5635   7.097   5.260   9.464
  101DIO    C26 5636   7.058   5.388   9.536
  101DIO     H1 5637   8.779   5.095   9.599
  101DIO     H2 5638   8.737   5.535   9.603
  101DIO     H3 5639   8.560   5.432   9.407
  101DIO     H4 5640   8.309   5.406   9.392
  101DIO     H5 5641   8.310   5.143   9.740
  101DIO     H6 5642   7.701   5.242   9.339
  101DIO     H7 5643   7.689   4.955   9.671
  101DIO     H8 5644   7.532   4.984   9.406
  101DIO     H9 5645   7.496   5.332   9.520
  101DIO    H10 5646   7.356   5.349   9.417
  101DIO    H11 5647   7.297   5.312   9.662
  101DIO    H12 5648   7.340   5.078   9.750
  101DIO    H13 5649   7.487   5.171   9.722
  101DIO    H14 5650   7.207   5.078   9.485
  101DIO    H15 5651   7.131   5.133   9.633
  101DIO    H16 5652   7.144   5.285   9.368
  101DIO    H17 5653   7.005   5.205   9.439
  101DIO    H18 5654   7.014   5.366   9.634
  101DIO    H19 5655   7.145   5.453   9.551
  101DIO    H20 5656   6.984   5.444   9.478
  102DIO     F1 5657   1.752   6.314   6.612
  102DIO     C1 5658   1.675   6.233   6.538
  102DIO     C2 5659   1.530   6.238   6.554
  102DIO     C3 5660   1.442   6.148   6.477
  102DIO     C4 5661   1.507   6.056   6.381
  102DIO     C5 5662   1.651   6.053   6.367
  102DIO     F2 5663   1.707   5.970   6.276
  102DIO     C6 5664   1.735   6.141   6.445
  102DIO     F3 5665   1.869   6.136   6.431
  102DIO     C7 5666   1.295   6.151   6.493
  102DIO     C8 5667   1.218   6.027   6.516
  102DIO     C9 5668   1.073   6.029   6.531
  102DIO    C10 5669   1.001   6.154   6.513
  102DIO    C11 5670   1.073   6.279   6.498
  102DIO    C12 5671   1.217   6.276   6.485
  102DIO     F4 5672   1.282   6.393   6.466
  102DIO     O1 5673   0.869   6.153   6.552
  102DIO    C13 5674   0.774   6.230   6.485
  102DIO     O2 5675   0.773   6.284   6.371
  102DIO    C14 5676   0.645   6.235   6.554
  102DIO    C15 5677   0.579   6.112   6.604
  102DIO     F5 5678   0.641   5.993   6.595
  102DIO    C16 5679   0.448   6.114   6.667
  102DIO    C17 5680   0.372   6.238   6.677
  102DIO    C18 5681   0.441   6.362   6.644
  102DIO    C19 5682   0.573   6.360   6.583
  102DIO     F6 5683   0.635   6.479   6.569
  102DIO    C20 5684   0.231   6.240   6.732
  102DIO     O3 5685   0.162   6.115   6.716
  102DIO    C21 5686   0.118   6.094   6.582
  102DIO    C22 5687   0.029   6.209   6.534
  102DIO    C23 5688   0.110   6.337   6.552
  102DIO     O4 5689   0.154   6.351   6.687
  102DIO    C24 5690  -0.104   6.219   6.613
  102DIO    C25 5691  -0.194   6.095   6.607
  102DIO    C26 5692  -0.233   6.054   6.465
  102DIO     H1 5693   1.488   6.308   6.624
  102DIO     H2 5694   1.447   5.995   6.315
  102DIO     H3 5695   1.270   5.932   6.527
  102DIO     H4 5696   1.018   5.940   6.556
  102DIO     H5 5697   1.019   6.372   6.490
  102DIO     H6 5698   0.410   6.021   6.709
  102DIO     H7 5699   0.398   6.458   6.671
  102DIO     H8 5700   0.241   6.253   6.840
  102DIO     H9 5701   0.205   6.083   6.516
  102DIO    H10 5702   0.065   5.998   6.579
  102DIO    H11 5703   0.007   6.196   6.428
  102DIO    H12 5704   0.049   6.425   6.528
  102DIO    H13 5705   0.196   6.339   6.484
  102DIO    H14 5706  -0.084   6.241   6.718
  102DIO    H15 5707  -0.160   6.304   6.574
  102DIO    H16 5708  -0.147   6.011   6.658
  102DIO    H17 5709  -0.286   6.117   6.663
  102DIO    H18 5710  -0.277   6.138   6.410
  102DIO    H19 5711  -0.146   6.017   6.410
  102DIO    H20 5712  -0.306   5.973   6.469
  103DIO     F1 5713   2.599   0.748   9.745
  103DIO     C1 5714   2.522   0.809   9.653
  103DIO     C2 5715   2.378   0.794   9.660
  103DIO     C3 5716   2.289   0.857   9.560
  103DIO     C4 5717   2.354   0.938   9.455
  103DIO     C5 5718   2.499   0.952   9.450
  103DIO     F2 5719   2.554   1.030   9.355
  103DIO     C6 5720   2.582   0.888   9.549
  103DIO     F3 5721   2.716   0.901   9.542
  103DIO     C7 5722   2.143   0.842   9.565
  103DIO     C8 5723   2.065   0.801   9.446
  103DIO     C9 5724   1.921   0.786   9.451
  103DIO    C10 5725   1.848   0.822   9.571
  103DIO    C11 5726   1.921   0.856   9.693
  103DIO    C12 5727   2.065   0.867   9.688
  103DIO     F4 5728   2.130   0.904   9.801
  103DIO     O1 5729   1.716   0.783   9.577
  103DIO    C13 5730   1.621   0.861   9.643
  103DIO     O2 5731   1.621   0.982   9.679
  103DIO    C14 5732   1.492   0.793   9.657
  103DIO    C15 5733   1.426   0.726   9.543
  103DIO     F5 5734   1.489   0.718   9.424
  103DIO    C16 5735   1.295   0.664   9.554
  103DIO    C17 5736   1.219   0.672   9.679
  103DIO    C18 5737   1.288   0.723   9.797
  103DIO    C19 5738   1.420   0.783   9.786
  103DIO     F6 5739   1.482   0.814   9.902
  103DIO    C20 5740   1.079   0.618   9.688
  103DIO     O3 5741   1.009   0.616   9.563
  103DIO    C21 5742   0.965   0.745   9.522
  103DIO    C22 5743   0.876   0.809   9.629
  103DIO    C23 5744   0.957   0.811   9.758
  103DIO     O4 5745   1.001   0.679   9.792
  103DIO    C24 5746   0.744   0.733   9.650
  103DIO    C25 5747   0.653   0.721   9.527
  103DIO    C26 5748   0.615   0.855   9.466
  103DIO     H1 5749   2.335   0.734   9.741
  103DIO     H2 5750   2.294   0.995   9.385
  103DIO     H3 5751   2.117   0.775   9.354
  103DIO     H4 5752   1.866   0.748   9.366
  103DIO     H5 5753   1.866   0.877   9.784
  103DIO     H6 5754   1.257   0.609   9.469
  103DIO     H7 5755   1.245   0.711   9.896
  103DIO     H8 5756   1.088   0.513   9.717
  103DIO     H9 5757   1.052   0.809   9.502
  103DIO    H10 5758   0.913   0.734   9.427
  103DIO    H11 5759   0.854   0.912   9.600
  103DIO    H12 5760   0.896   0.847   9.842
  103DIO    H13 5761   1.043   0.878   9.750
  103DIO    H14 5762   0.764   0.632   9.687
  103DIO    H15 5763   0.687   0.784   9.729
  103DIO    H16 5764   0.700   0.658   9.451
  103DIO    H17 5765   0.561   0.669   9.557
  103DIO    H18 5766   0.571   0.921   9.540
  103DIO    H19 5767   0.701   0.904   9.421
  103DIO    H20 5768   0.541   0.839   9.386
  104DIO     F1 5769   5.624  -0.551   0.256
  104DIO     C1 5770   5.547  -0.654   0.216
  104DIO     C2 5771   5.403  -0.643   0.229
  104DIO     C3 5772   5.314  -0.755   0.189
  104DIO     C4 5773   5.379  -0.875   0.133
  104DIO     C5 5774   5.524  -0.883   0.121
  104DIO     F2 5775   5.579  -0.993   0.065
  104DIO     C6 5776   5.607  -0.773   0.162
  104DIO     F3 5777   5.741  -0.782   0.151
  104DIO     C7 5778   5.167  -0.746   0.203
  104DIO     C8 5779   5.090  -0.854   0.269
  104DIO     C9 5780   4.946  -0.846   0.282
  104DIO    C10 5781   4.873  -0.736   0.221
  104DIO    C11 5782   4.945  -0.625   0.162
  104DIO    C12 5783   5.090  -0.632   0.151
  104DIO     F4 5784   5.154  -0.530   0.091
  104DIO     O1 5785   4.741  -0.723   0.258
  104DIO    C13 5786   4.646  -0.675   0.167
  104DIO     O2 5787   4.645  -0.666   0.042
  104DIO    C14 5788   4.517  -0.646   0.230
  104DIO    C15 5789   4.451  -0.743   0.321
  104DIO     F5 5790   4.513  -0.857   0.354
  104DIO    C16 5791   4.320  -0.719   0.379
  104DIO    C17 5792   4.244  -0.599   0.344
  104DIO    C18 5793   4.313  -0.495   0.269
  104DIO    C19 5794   4.445  -0.518   0.212
  104DIO     F6 5795   4.507  -0.412   0.157
  104DIO    C20 5796   4.104  -0.578   0.394
  104DIO     O3 5797   4.034  -0.700   0.424
  104DIO    C21 5798   3.990  -0.767   0.306
  104DIO    C22 5799   3.901  -0.677   0.221
  104DIO    C23 5800   3.982  -0.551   0.191
  104DIO     O4 5801   4.026  -0.490   0.312
  104DIO    C24 5802   3.768  -0.640   0.291
  104DIO    C25 5803   3.678  -0.757   0.329
  104DIO    C26 5804   3.639  -0.846   0.212
  104DIO     H1 5805   5.360  -0.552   0.270
  104DIO     H2 5806   5.319  -0.956   0.093
  104DIO     H3 5807   5.142  -0.938   0.313
  104DIO     H4 5808   4.890  -0.920   0.338
  104DIO     H5 5809   4.891  -0.541   0.121
  104DIO     H6 5810   4.282  -0.790   0.451
  104DIO     H7 5811   4.270  -0.396   0.259
  104DIO     H8 5812   4.113  -0.527   0.491
  104DIO     H9 5813   4.077  -0.801   0.249
  104DIO    H10 5814   3.937  -0.858   0.338
  104DIO    H11 5815   3.879  -0.728   0.126
  104DIO    H12 5816   3.921  -0.478   0.138
  104DIO    H13 5817   4.068  -0.574   0.127
  104DIO    H14 5818   3.788  -0.582   0.381
  104DIO    H15 5819   3.712  -0.574   0.224
  104DIO    H16 5820   3.725  -0.818   0.407
  104DIO    H17 5821   3.586  -0.717   0.374
  104DIO    H18 5822   3.595  -0.788   0.131
  104DIO    H19 5823   3.726  -0.901   0.173
  104DIO    H20 5824   3.566  -0.921   0.244
  105DIO     F1 5825   1.893   7.759   6.410
  105DIO     C1 5826   1.815   7.800   6.512
  105DIO     C2 5827   1.671   7.803   6.495
  105DIO     C3 5828   1.582   7.850   6.604
  105DIO     C4 5829   1.648   7.891   6.730
  105DIO     C5 5830   1.792   7.888   6.744
  105DIO     F2 5831   1.847   7.923   6.862
  105DIO     C6 5832   1.876   7.842   6.636
  105DIO     F3 5833   2.010   7.840   6.650
  105DIO     C7 5834   1.436   7.854   6.589
  105DIO     C8 5835   1.359   7.976   6.622
  105DIO     C9 5836   1.214   7.980   6.607
  105DIO    C10 5837   1.141   7.860   6.569
  105DIO    C11 5838   1.214   7.741   6.528
  105DIO    C12 5839   1.358   7.738   6.541
  105DIO     F4 5840   1.423   7.625   6.508
  105DIO     O1 5841   1.009   7.878   6.534
  105DIO    C13 5842   0.915   7.779   6.561
  105DIO     O2 5843   0.914   7.681   6.640
  105DIO    C14 5844   0.786   7.805   6.497
  105DIO    C15 5845   0.719   7.937   6.505
  105DIO     F5 5846   0.782   8.041   6.566
  105DIO    C16 5847   0.589   7.963   6.448
  105DIO    C17 5848   0.513   7.856   6.385
  105DIO    C18 5849   0.582   7.730   6.360
  105DIO    C19 5850   0.713   7.705   6.416
  105DIO     F6 5851   0.776   7.592   6.377
  105DIO    C20 5852   0.372   7.878   6.335
  105DIO     O3 5853   0.302   7.983   6.403
  105DIO    C21 5854   0.259   7.944   6.533
  105DIO    C22 5855   0.170   7.820   6.526
  105DIO    C23 5856   0.251   7.712   6.454
  105DIO     O4 5857   0.295   7.758   6.327
  105DIO    C24 5858   0.037   7.845   6.451
  105DIO    C25 5859  -0.054   7.954   6.510
  105DIO    C26 5860  -0.092   7.929   6.655
  105DIO     H1 5861   1.628   7.770   6.401
  105DIO     H2 5862   1.587   7.917   6.817
  105DIO     H3 5863   1.410   8.066   6.653
  105DIO     H4 5864   1.159   8.072   6.623
  105DIO     H5 5865   1.160   7.654   6.495
  105DIO     H6 5866   0.550   8.065   6.450
  105DIO     H7 5867   0.539   7.655   6.295
  105DIO     H8 5868   0.382   7.914   6.231
  105DIO     H9 5869   0.345   7.925   6.597
  105DIO    H10 5870   0.206   8.029   6.578
  105DIO    H11 5871   0.147   7.786   6.627
  105DIO    H12 5872   0.189   7.623   6.438
  105DIO    H13 5873   0.337   7.681   6.515
  105DIO    H14 5874   0.057   7.871   6.346
  105DIO    H15 5875  -0.019   7.751   6.449
  105DIO    H16 5876  -0.006   8.052   6.501
  105DIO    H17 5877  -0.145   7.958   6.450
  105DIO    H18 5878  -0.136   7.830   6.668
  105DIO    H19 5879  -0.006   7.938   6.722
  105DIO    H20 5880  -0.166   8.004   6.687
  106DIO     F1 5881   3.376   7.837   0.619
  106DIO     C1 5882   3.298   7.921   0.548
  106DIO     C2 5883   3.154   7.905   0.551
  106DIO     C3 5884   3.065   7.993   0.473
  106DIO     C4 5885   3.131   8.100   0.394
  106DIO     C5 5886   3.275   8.115   0.393
  106DIO     F2 5887   3.330   8.216   0.323
  106DIO     C6 5888   3.359   8.026   0.470
  106DIO     F3 5889   3.492   8.040   0.467
  106DIO     C7 5890   2.919   7.977   0.473
  106DIO     C8 5891   2.842   7.970   0.347
  106DIO     C9 5892   2.697   7.955   0.348
  106DIO    C10 5893   2.624   7.956   0.473
  106DIO    C11 5894   2.697   7.955   0.599
  106DIO    C12 5895   2.841   7.968   0.598
  106DIO     F4 5896   2.906   7.972   0.717
  106DIO     O1 5897   2.492   7.918   0.468
  106DIO    C13 5898   2.398   7.975   0.553
  106DIO     O2 5899   2.397   8.080   0.621
  106DIO    C14 5900   2.269   7.905   0.548
  106DIO    C15 5901   2.202   7.872   0.420
  106DIO     F5 5902   2.265   7.897   0.303
  106DIO    C16 5903   2.071   7.810   0.413
  106DIO    C17 5904   1.996   7.783   0.535
  106DIO    C18 5905   2.064   7.799   0.663
  106DIO    C19 5906   2.196   7.860   0.669
  106DIO     F6 5907   2.259   7.858   0.789
  106DIO    C20 5908   1.855   7.728   0.529
  106DIO     O3 5909   1.785   7.761   0.409
  106DIO    C21 5910   1.742   7.896   0.405
  106DIO    C22 5911   1.653   7.928   0.525
  106DIO    C23 5912   1.733   7.894   0.650
  106DIO     O4 5913   1.778   7.758   0.646
  106DIO    C24 5914   1.520   7.849   0.525
  106DIO    C25 5915   1.429   7.872   0.403
  106DIO    C26 5916   1.391   8.017   0.381
  106DIO     H1 5917   3.111   7.826   0.612
  106DIO     H2 5918   3.070   8.174   0.342
  106DIO     H3 5919   2.893   7.972   0.252
  106DIO     H4 5920   2.642   7.942   0.256
  106DIO     H5 5921   2.642   7.951   0.693
  106DIO     H6 5922   2.033   7.780   0.316
  106DIO     H7 5923   2.022   7.760   0.754
  106DIO     H8 5924   1.865   7.619   0.528
  106DIO     H9 5925   1.828   7.963   0.403
  106DIO    H10 5926   1.689   7.912   0.311
  106DIO    H11 5927   1.630   8.035   0.526
  106DIO    H12 5928   1.672   7.906   0.740
  106DIO    H13 5929   1.820   7.961   0.661
  106DIO    H14 5930   1.540   7.742   0.533
  106DIO    H15 5931   1.463   7.876   0.615
  106DIO    H16 5932   1.477   7.832   0.313
  106DIO    H17 5933   1.337   7.813   0.418
  106DIO    H18 5934   1.347   8.061   0.471
  106DIO    H19 5935   1.477   8.077   0.352
  106DIO    H20 5936   1.317   8.024   0.300
  107DIO     F1 5937   6.807   7.531   4.551
  107DIO     C1 5938   6.729   7.456   4.470
  107DIO     C2 5939   6.585   7.460   4.487
  107DIO     C3 5940   6.496   7.378   4.401
  107DIO     C4 5941   6.562   7.295   4.297
  107DIO     C5 5942   6.706   7.293   4.283
  107DIO     F2 5943   6.762   7.220   4.184
  107DIO     C6 5944   6.790   7.374   4.368
  107DIO     F3 5945   6.924   7.370   4.354
  107DIO     C7 5946   6.350   7.379   4.417
  107DIO     C8 5947   6.273   7.253   4.429
  107DIO     C9 5948   6.128   7.255   4.444
  107DIO    C10 5949   6.056   7.380   4.438
  107DIO    C11 5950   6.128   7.506   4.434
  107DIO    C12 5951   6.272   7.505   4.422
  107DIO     F4 5952   6.337   7.622   4.413
  107DIO     O1 5953   5.923   7.376   4.477
  107DIO    C13 5954   5.829   7.459   4.417
  107DIO     O2 5955   5.828   7.523   4.308
  107DIO    C14 5956   5.700   7.457   4.486
  107DIO    C15 5957   5.633   7.330   4.524
  107DIO     F5 5958   5.696   7.212   4.503
  107DIO    C16 5959   5.503   7.326   4.587
  107DIO    C17 5960   5.427   7.448   4.609
  107DIO    C18 5961   5.496   7.575   4.588
  107DIO    C19 5962   5.627   7.579   4.527
  107DIO     F6 5963   5.690   7.699   4.524
  107DIO    C20 5964   5.286   7.445   4.663
  107DIO     O3 5965   5.216   7.323   4.635
  107DIO    C21 5966   5.173   7.314   4.500
  107DIO    C22 5967   5.084   7.433   4.464
  107DIO    C23 5968   5.165   7.559   4.494
  107DIO     O4 5969   5.209   7.560   4.629
  107DIO    C24 5970   4.951   7.435   4.543
  107DIO    C25 5971   4.860   7.313   4.525
  107DIO    C26 5972   4.822   7.285   4.381
  107DIO     H1 5973   6.543   7.524   4.563
  107DIO     H2 5974   6.501   7.241   4.225
  107DIO     H3 5975   6.324   7.158   4.431
  107DIO     H4 5976   6.073   7.163   4.461
  107DIO     H5 5977   6.074   7.599   4.435
  107DIO     H6 5978   5.465   7.230   4.620
  107DIO     H7 5979   5.453   7.668   4.623
  107DIO     H8 5980   5.296   7.448   4.773
  107DIO     H9 5981   5.259   7.309   4.434
  107DIO    H10 5982   5.120   7.219   4.488
  107DIO    H11 5983   5.061   7.430   4.357
  107DIO    H12 5984   5.104   7.649   4.478
  107DIO    H13 5985   5.251   7.567   4.426
  107DIO    H14 5986   4.971   7.447   4.650
  107DIO    H15 5987   4.895   7.524   4.512
  107DIO    H16 5988   4.908   7.224   4.568
  107DIO    H17 5989   4.769   7.330   4.583
  107DIO    H18 5990   4.778   7.374   4.334
  107DIO    H19 5991   4.909   7.254   4.322
  107DIO    H20 5992   4.748   7.204   4.377
  108DIO     F1 5993   1.525   2.374   8.212
  108DIO     C1 5994   1.448   2.319   8.116
  108DIO     C2 5995   1.303   2.319   8.133
  108DIO     C3 5996   1.215   2.258   8.031
  108DIO     C4 5997   1.280   2.201   7.911
  108DIO     C5 5998   1.424   2.202   7.897
  108DIO     F2 5999   1.480   2.153   7.785
  108DIO     C6 6000   1.508   2.262   7.998
  108DIO     F3 6001   1.642   2.262   7.984
  108DIO     C7 6002   1.068   2.256   8.047
  108DIO     C8 6003   0.991   2.131   8.030
  108DIO     C9 6004   0.846   2.129   8.045
  108DIO    C10 6005   0.774   2.252   8.068
  108DIO    C11 6006   0.846   2.376   8.092
  108DIO    C12 6007   0.990   2.377   8.080
  108DIO     F4 6008   1.055   2.494   8.098
  108DIO     O1 6009   0.642   2.240   8.105
  108DIO    C13 6010   0.547   2.334   8.065
  108DIO     O2 6011   0.546   2.421   7.974
  108DIO    C14 6012   0.418   2.316   8.132
  108DIO    C15 6013   0.352   2.184   8.140
  108DIO     F5 6014   0.414   2.074   8.094
  108DIO    C16 6015   0.221   2.166   8.201
  108DIO    C17 6016   0.145   2.281   8.249
  108DIO    C18 6017   0.214   2.409   8.258
  108DIO    C19 6018   0.346   2.427   8.199
  108DIO     F6 6019   0.408   2.544   8.223
  108DIO    C20 6020   0.004   2.265   8.302
  108DIO     O3 6021  -0.065   2.152   8.247
  108DIO    C21 6022  -0.109   2.174   8.114
  108DIO    C22 6023  -0.198   2.298   8.105
  108DIO    C23 6024  -0.117   2.414   8.162
  108DIO     O4 6025  -0.073   2.385   8.294
  108DIO    C24 6026  -0.331   2.283   8.182
  108DIO    C25 6027  -0.421   2.167   8.138
  108DIO    C26 6028  -0.460   2.173   7.991
  108DIO     H1 6029   1.261   2.364   8.222
  108DIO     H2 6030   1.220   2.164   7.829
  108DIO     H3 6031   1.043   2.038   8.011
  108DIO     H4 6032   0.791   2.036   8.041
  108DIO     H5 6033   0.792   2.467   8.114
  108DIO     H6 6034   0.183   2.065   8.211
  108DIO     H7 6035   0.171   2.492   8.313
  108DIO     H8 6036   0.014   2.243   8.409
  108DIO     H9 6037  -0.022   2.184   8.048
  108DIO    H10 6038  -0.162   2.084   8.081
  108DIO    H11 6039  -0.220   2.319   8.000
  108DIO    H12 6040  -0.178   2.505   8.167
  108DIO    H13 6041  -0.031   2.437   8.098
  108DIO    H14 6042  -0.311   2.270   8.290
  108DIO    H15 6043  -0.387   2.376   8.173
  108DIO    H16 6044  -0.374   2.071   8.160
  108DIO    H17 6045  -0.513   2.171   8.198
  108DIO    H18 6046  -0.504   2.270   7.965
  108DIO    H19 6047  -0.373   2.155   7.926
  108DIO    H20 6048  -0.533   2.095   7.968
  109DIO     F1 6049  10.810   5.673  -0.151
  109DIO     C1 6050  10.732   5.646  -0.258
  109DIO     C2 6051  10.588   5.641  -0.241
  109DIO     C3 6052  10.499   5.610  -0.356
  109DIO     C4 6053  10.565   5.587  -0.487
  109DIO     C5 6054  10.709   5.593  -0.500
  109DIO     F2 6055  10.765   5.576  -0.622
  109DIO     C6 6056  10.793   5.623  -0.387
  109DIO     F3 6057  10.927   5.626  -0.400
  109DIO     C7 6058  10.353   5.604  -0.341
  109DIO     C8 6059  10.276   5.488  -0.391
  109DIO     C9 6060  10.131   5.482  -0.377
  109DIO    C10 6061  10.059   5.595  -0.323
  109DIO    C11 6062  10.131   5.707  -0.265
  109DIO    C12 6063  10.275   5.712  -0.277
  109DIO     F4 6064  10.340   5.819  -0.228
  109DIO     O1 6065   9.926   5.573  -0.290
  109DIO    C13 6066   9.832   5.674  -0.303
  109DIO     O2 6067   9.831   5.782  -0.367
  109DIO    C14 6068   9.703   5.639  -0.243
  109DIO    C15 6069   9.636   5.509  -0.271
  109DIO     F5 6070   9.699   5.416  -0.345
  109DIO    C16 6071   9.506   5.476  -0.218
  109DIO    C17 6072   9.430   5.573  -0.140
  109DIO    C18 6073   9.499   5.694  -0.097
  109DIO    C19 6074   9.630   5.727  -0.149
  109DIO     F6 6075   9.693   5.833  -0.094
  109DIO    C20 6076   9.289   5.543  -0.093
  109DIO     O3 6077   9.219   5.450  -0.176
  109DIO    C21 6078   9.176   5.507  -0.299
  109DIO    C22 6079   9.087   5.628  -0.274
  109DIO    C23 6080   9.168   5.725  -0.188
  109DIO     O4 6081   9.212   5.661  -0.068
  109DIO    C24 6082   8.954   5.593  -0.204
  109DIO    C25 6083   8.863   5.494  -0.278
  109DIO    C26 6084   8.825   5.539  -0.418
  109DIO     H1 6085  10.546   5.661  -0.144
  109DIO     H2 6086  10.504   5.574  -0.576
  109DIO     H3 6087  10.327   5.403  -0.435
  109DIO     H4 6088  10.076   5.393  -0.407
  109DIO     H5 6089  10.077   5.788  -0.220
  109DIO     H6 6090   9.468   5.376  -0.235
  109DIO     H7 6091   9.456   5.759  -0.022
  109DIO     H8 6092   9.299   5.494   0.004
  109DIO     H9 6093   9.262   5.535  -0.360
  109DIO    H10 6094   9.123   5.430  -0.355
  109DIO    H11 6095   9.064   5.677  -0.370
  109DIO    H12 6096   9.107   5.811  -0.159
  109DIO    H13 6097   9.254   5.765  -0.243
  109DIO    H14 6098   8.974   5.552  -0.104
  109DIO    H15 6099   8.898   5.686  -0.188
  109DIO    H16 6100   8.911   5.395  -0.283
  109DIO    H17 6101   8.772   5.481  -0.219
  109DIO    H18 6102   8.781   5.639  -0.417
  109DIO    H19 6103   8.912   5.540  -0.485
  109DIO    H20 6104   8.751   5.470  -0.460
  110DIO     F1 6105   3.852   2.695   4.590
  110DIO     C1 6106   3.775   2.784   4.655
  110DIO     C2 6107   3.630   2.777   4.640
  110DIO     C3 6108   3.542   2.874   4.708
  110DIO     C4 6109   3.607   2.975   4.794
  110DIO     C5 6110   3.751   2.979   4.808
  110DIO     F2 6111   3.807   3.070   4.891
  110DIO     C6 6112   3.835   2.884   4.740
  110DIO     F3 6113   3.969   2.890   4.753
  110DIO     C7 6114   3.395   2.869   4.693
  110DIO     C8 6115   3.318   2.991   4.658
  110DIO     C9 6116   3.173   2.986   4.643
  110DIO    C10 6117   3.101   2.864   4.673
  110DIO    C11 6118   3.173   2.742   4.700
  110DIO    C12 6119   3.317   2.745   4.712
  110DIO     F4 6120   3.382   2.631   4.743
  110DIO     O1 6121   2.969   2.861   4.634
  110DIO    C13 6122   2.874   2.791   4.708
  110DIO     O2 6123   2.873   2.749   4.827
  110DIO    C14 6124   2.745   2.780   4.640
  110DIO    C15 6125   2.679   2.897   4.578
  110DIO     F5 6126   2.741   3.017   4.576
  110DIO    C16 6127   2.548   2.889   4.516
  110DIO    C17 6128   2.472   2.765   4.518
  110DIO    C18 6129   2.541   2.644   4.562
  110DIO    C19 6130   2.673   2.652   4.623
  110DIO     F6 6131   2.735   2.535   4.649
  110DIO    C20 6132   2.331   2.758   4.463
  110DIO     O3 6133   2.262   2.883   4.468
  110DIO    C21 6134   2.218   2.917   4.599
  110DIO    C22 6135   2.129   2.808   4.657
  110DIO    C23 6136   2.210   2.678   4.652
  110DIO     O4 6137   2.254   2.651   4.519
  110DIO    C24 6138   1.996   2.790   4.580
  110DIO    C25 6139   1.906   2.913   4.574
  110DIO    C26 6140   1.867   2.968   4.711
  110DIO     H1 6141   3.588   2.700   4.577
  110DIO     H2 6142   3.547   3.042   4.855
  110DIO     H3 6143   3.370   3.083   4.637
  110DIO     H4 6144   3.118   3.073   4.609
  110DIO     H5 6145   3.119   2.650   4.717
  110DIO     H6 6146   2.510   2.977   4.465
  110DIO     H7 6147   2.498   2.546   4.546
  110DIO     H8 6148   2.341   2.734   4.357
  110DIO     H9 6149   2.305   2.935   4.663
  110DIO    H10 6150   2.165   3.013   4.593
  110DIO    H11 6151   2.107   2.831   4.762
  110DIO    H12 6152   2.149   2.593   4.685
  110DIO    H13 6153   2.296   2.683   4.720
  110DIO    H14 6154   2.016   2.758   4.477
  110DIO    H15 6155   1.940   2.709   4.627
  110DIO    H16 6156   1.953   2.993   4.515
  110DIO    H17 6157   1.814   2.886   4.520
  110DIO    H18 6158   1.823   2.890   4.774
  110DIO    H19 6159   1.954   3.010   4.763
  110DIO    H20 6160   1.794   3.048   4.699
  111DIO     F1 6161   2.229   5.459  10.742
  111DIO     C1 6162   2.152   5.568  10.749
  111DIO     C2 6163   2.008   5.554  10.739
  111DIO     C3 6164   1.919   5.673  10.744
  111DIO     C4 6165   1.984   5.805  10.762
  111DIO     C5 6166   2.129   5.816  10.771
  111DIO     F2 6167   2.184   5.937  10.791
  111DIO     C6 6168   2.212   5.698  10.765
  111DIO     F3 6169   2.346   5.710  10.773
  111DIO     C7 6170   1.772   5.661  10.734
  111DIO     C8 6171   1.695   5.744  10.638
  111DIO     C9 6172   1.551   5.732  10.628
  111DIO    C10 6173   1.478   5.646  10.719
  111DIO    C11 6174   1.551   5.557  10.809
  111DIO    C12 6175   1.695   5.567  10.817
  111DIO     F4 6176   1.760   5.488  10.905
  111DIO     O1 6177   1.346   5.622  10.689
  111DIO    C13 6178   1.251   5.604  10.789
  111DIO     O2 6179   1.250   5.632  10.912
  111DIO    C14 6180   1.122   5.557  10.738
  111DIO    C15 6181   1.056   5.622  10.623
  111DIO     F5 6182   1.119   5.721  10.556
  111DIO    C16 6183   0.925   5.582  10.574
  111DIO    C17 6184   0.849   5.478  10.643
  111DIO    C18 6185   0.918   5.401  10.746
  111DIO    C19 6186   1.050   5.440  10.793
  111DIO     F6 6187   1.112   5.356  10.878
  111DIO    C20 6188   0.709   5.443  10.602
  111DIO     O3 6189   0.639   5.550  10.537
  111DIO    C21 6190   0.595   5.650  10.629
  111DIO    C22 6191   0.506   5.590  10.737
  111DIO    C23 6192   0.587   5.478  10.803
  111DIO     O4 6193   0.631   5.383  10.706
  111DIO    C24 6194   0.374   5.533  10.682
  111DIO    C25 6195   0.283   5.633  10.610
  111DIO    C26 6196   0.244   5.754  10.695
  111DIO     H1 6197   1.965   5.455  10.728
  111DIO     H2 6198   1.924   5.893  10.776
  111DIO     H3 6199   1.747   5.810  10.571
  111DIO     H4 6200   1.496   5.787  10.553
  111DIO     H5 6201   1.496   5.489  10.873
  111DIO     H6 6202   0.887   5.628  10.484
  111DIO     H7 6203   0.875   5.309  10.785
  111DIO     H8 6204   0.718   5.365  10.525
  111DIO     H9 6205   0.682   5.700  10.674
  111DIO    H10 6206   0.542   5.727  10.572
  111DIO    H11 6207   0.484   5.666  10.812
  111DIO    H12 6208   0.526   5.424  10.877
  111DIO    H13 6209   0.673   5.519  10.857
  111DIO    H14 6210   0.393   5.450  10.613
  111DIO    H15 6211   0.317   5.490  10.766
  111DIO    H16 6212   0.330   5.668  10.517
  111DIO    H17 6213   0.191   5.581  10.580
  111DIO    H18 6214   0.201   5.722  10.790
  111DIO    H19 6215   0.331   5.817  10.716
  111DIO    H20 6216   0.171   5.815  10.642
  112DIO     F1 6217   1.150   9.299   8.968
  112DIO     C1 6218   1.072   9.218   8.894
  112DIO     C2 6219   0.928   9.223   8.911
  112DIO     C3 6220   0.839   9.134   8.833
  112DIO     C4 6221   0.905   9.042   8.737
  112DIO     C5 6222   1.049   9.039   8.723
  112DIO     F2 6223   1.104   8.956   8.631
  112DIO     C6 6224   1.133   9.127   8.800
  112DIO     F3 6225   1.266   9.122   8.787
  112DIO     C7 6226   0.693   9.136   8.849
  112DIO     C8 6227   0.616   9.012   8.871
  112DIO     C9 6228   0.471   9.015   8.886
  112DIO    C10 6229   0.398   9.139   8.869
  112DIO    C11 6230   0.471   9.264   8.854
  112DIO    C12 6231   0.615   9.262   8.842
  112DIO     F4 6232   0.680   9.378   8.822
  112DIO     O1 6233   0.266   9.139   8.908
  112DIO    C13 6234   0.172   9.216   8.841
  112DIO     O2 6235   0.171   9.270   8.727
  112DIO    C14 6236   0.042   9.220   8.910
  112DIO    C15 6237  -0.024   9.097   8.960
  112DIO     F5 6238   0.039   8.978   8.950
  112DIO    C16 6239  -0.155   9.099   9.022
  112DIO    C17 6240  -0.230   9.223   9.033
  112DIO    C18 6241  -0.162   9.347   9.001
  112DIO    C19 6242  -0.030   9.346   8.940
  112DIO     F6 6243   0.032   9.465   8.926
  112DIO    C20 6244  -0.371   9.224   9.088
  112DIO     O3 6245  -0.441   9.100   9.071
  112DIO    C21 6246  -0.485   9.079   8.937
  112DIO    C22 6247  -0.573   9.194   8.890
  112DIO    C23 6248  -0.493   9.323   8.908
  112DIO     O4 6249  -0.448   9.336   9.043
  112DIO    C24 6250  -0.706   9.204   8.969
  112DIO    C25 6251  -0.797   9.080   8.962
  112DIO    C26 6252  -0.835   9.040   8.821
  112DIO     H1 6253   0.885   9.293   8.981
  112DIO     H2 6254   0.844   8.981   8.670
  112DIO     H3 6255   0.667   8.918   8.882
  112DIO     H4 6256   0.416   8.925   8.912
  112DIO     H5 6257   0.416   9.357   8.847
  112DIO     H6 6258  -0.193   9.006   9.064
  112DIO     H7 6259  -0.205   9.443   9.028
  112DIO     H8 6260  -0.361   9.237   9.196
  112DIO     H9 6261  -0.398   9.068   8.871
  112DIO    H10 6262  -0.537   8.984   8.934
  112DIO    H11 6263  -0.596   9.181   8.784
  112DIO    H12 6264  -0.554   9.410   8.884
  112DIO    H13 6265  -0.407   9.324   8.840
  112DIO    H14 6266  -0.686   9.226   9.074
  112DIO    H15 6267  -0.763   9.290   8.930
  112DIO    H16 6268  -0.750   8.996   9.013
  112DIO    H17 6269  -0.889   9.102   9.018
  112DIO    H18 6270  -0.879   9.124   8.766
  112DIO    H19 6271  -0.749   9.003   8.765
  112DIO    H20 6272  -0.909   8.959   8.824
  113DIO     F1 6273   6.231   1.842  -0.242
  113DIO     C1 6274   6.153   1.741  -0.200
  113DIO     C2 6275   6.009   1.757  -0.198
  113DIO     C3 6276   5.920   1.649  -0.150
  113DIO     C4 6277   5.986   1.523  -0.108
  113DIO     C5 6278   6.130   1.509  -0.111
  113DIO     F2 6279   6.185   1.391  -0.076
  113DIO     C6 6280   6.214   1.617  -0.157
  113DIO     F3 6281   6.347   1.603  -0.159
  113DIO     C7 6282   5.774   1.664  -0.146
  113DIO     C8 6283   5.697   1.632  -0.024
  113DIO     C9 6284   5.552   1.647  -0.020
  113DIO    C10 6285   5.479   1.684  -0.139
  113DIO    C11 6286   5.552   1.724  -0.259
  113DIO    C12 6287   5.696   1.712  -0.262
  113DIO     F4 6288   5.761   1.744  -0.376
  113DIO     O1 6289   5.347   1.719  -0.122
  113DIO    C13 6290   5.253   1.691  -0.221
  113DIO     O2 6291   5.252   1.612  -0.318
  113DIO    C14 6292   5.123   1.756  -0.195
  113DIO    C15 6293   5.057   1.748  -0.063
  113DIO     F5 6294   5.120   1.688   0.041
  113DIO    C16 6295   4.926   1.805  -0.037
  113DIO    C17 6296   4.851   1.868  -0.145
  113DIO    C18 6297   4.919   1.892  -0.271
  113DIO    C19 6298   5.051   1.836  -0.296
  113DIO     F6 6299   5.113   1.875  -0.410
  113DIO    C20 6300   4.710   1.918  -0.123
  113DIO     O3 6301   4.640   1.850  -0.018
  113DIO    C21 6302   4.596   1.720  -0.056
  113DIO    C22 6303   4.508   1.727  -0.180
  113DIO    C23 6304   4.588   1.798  -0.289
  113DIO     O4 6305   4.633   1.926  -0.243
  113DIO    C24 6306   4.375   1.802  -0.155
  113DIO    C25 6307   4.284   1.743  -0.047
  113DIO    C26 6308   4.246   1.598  -0.070
  113DIO     H1 6309   5.966   1.851  -0.231
  113DIO     H2 6310   5.925   1.437  -0.081
  113DIO     H3 6311   5.748   1.602   0.067
  113DIO     H4 6312   5.497   1.631   0.072
  113DIO     H5 6313   5.497   1.757  -0.346
  113DIO     H6 6314   4.888   1.804   0.064
  113DIO     H7 6315   4.876   1.957  -0.347
  113DIO     H8 6316   4.720   2.022  -0.088
  113DIO     H9 6317   4.683   1.656  -0.074
  113DIO    H10 6318   4.544   1.676   0.029
  113DIO    H11 6319   4.485   1.625  -0.214
  113DIO    H12 6320   4.527   1.814  -0.378
  113DIO    H13 6321   4.674   1.737  -0.319
  113DIO    H14 6322   4.395   1.907  -0.130
  113DIO    H15 6323   4.318   1.804  -0.249
  113DIO    H16 6324   4.331   1.753   0.052
  113DIO    H17 6325   4.192   1.803  -0.042
  113DIO    H18 6326   4.202   1.584  -0.169
  113DIO    H19 6327   4.332   1.532  -0.061
  113DIO    H20 6328   4.172   1.566   0.005
  114DIO     F1 6329   6.497   8.573   0.379
  114DIO     C1 6330   6.419   8.492   0.305
  114DIO     C2 6331   6.275   8.497   0.321
  114DIO     C3 6332   6.186   8.407   0.244
  114DIO     C4 6333   6.252   8.315   0.148
  114DIO     C5 6334   6.396   8.312   0.134
  114DIO     F2 6335   6.452   8.229   0.043
  114DIO     C6 6336   6.480   8.400   0.212
  114DIO     F3 6337   6.614   8.395   0.198
  114DIO     C7 6338   6.040   8.410   0.260
  114DIO     C8 6339   5.963   8.286   0.283
  114DIO     C9 6340   5.818   8.288   0.298
  114DIO    C10 6341   5.746   8.413   0.280
  114DIO    C11 6342   5.818   8.538   0.265
  114DIO    C12 6343   5.962   8.535   0.252
  114DIO     F4 6344   6.027   8.652   0.232
  114DIO     O1 6345   5.613   8.412   0.319
  114DIO    C13 6346   5.519   8.489   0.252
  114DIO     O2 6347   5.518   8.543   0.138
  114DIO    C14 6348   5.390   8.494   0.321
  114DIO    C15 6349   5.323   8.371   0.371
  114DIO     F5 6350   5.386   8.252   0.362
  114DIO    C16 6351   5.193   8.373   0.434
  114DIO    C17 6352   5.117   8.497   0.444
  114DIO    C18 6353   5.186   8.621   0.411
  114DIO    C19 6354   5.317   8.620   0.350
  114DIO     F6 6355   5.380   8.739   0.336
  114DIO    C20 6356   4.976   8.499   0.499
  114DIO     O3 6357   4.906   8.375   0.482
  114DIO    C21 6358   4.863   8.353   0.349
  114DIO    C22 6359   4.774   8.468   0.301
  114DIO    C23 6360   4.855   8.596   0.319
  114DIO     O4 6361   4.899   8.610   0.453
  114DIO    C24 6362   4.641   8.478   0.380
  114DIO    C25 6363   4.550   8.354   0.374
  114DIO    C26 6364   4.512   8.313   0.232
  114DIO     H1 6365   6.233   8.568   0.391
  114DIO     H2 6366   6.191   8.254   0.082
  114DIO     H3 6367   6.014   8.191   0.294
  114DIO     H4 6368   5.763   8.199   0.323
  114DIO     H5 6369   5.764   8.631   0.257
  114DIO     H6 6370   5.155   8.281   0.476
  114DIO     H7 6371   5.143   8.717   0.437
  114DIO     H8 6372   4.986   8.512   0.607
  114DIO     H9 6373   4.949   8.342   0.283
  114DIO    H10 6374   4.810   8.258   0.346
  114DIO    H11 6375   4.751   8.455   0.195
  114DIO    H12 6376   4.794   8.684   0.294
  114DIO    H13 6377   4.941   8.598   0.251
  114DIO    H14 6378   4.661   8.500   0.485
  114DIO    H15 6379   4.585   8.564   0.341
  114DIO    H16 6380   4.598   8.270   0.425
  114DIO    H17 6381   4.459   8.377   0.430
  114DIO    H18 6382   4.468   8.397   0.177
  114DIO    H19 6383   4.599   8.276   0.177
  114DIO    H20 6384   4.438   8.232   0.236
  115DIO     F1 6385   9.604   9.968   5.520
  115DIO     C1 6386   9.526   9.911   5.614
  115DIO     C2 6387   9.382   9.926   5.606
  115DIO     C3 6388   9.294   9.867   5.708
  115DIO     C4 6389   9.359   9.790   5.817
  115DIO     C5 6390   9.503   9.776   5.822
  115DIO     F2 6391   9.559   9.702   5.920
  115DIO     C6 6392   9.587   9.836   5.721
  115DIO     F3 6393   9.721   9.824   5.728
  115DIO     C7 6394   9.147   9.882   5.702
  115DIO     C8 6395   9.070   9.928   5.820
  115DIO     C9 6396   8.925   9.942   5.815
  115DIO    C10 6397   8.853   9.901   5.696
  115DIO    C11 6398   8.925   9.863   5.576
  115DIO    C12 6399   9.069   9.851   5.581
  115DIO     F4 6400   9.134   9.810   5.470
  115DIO     O1 6401   8.721   9.940   5.689
  115DIO    C13 6402   8.626   9.859   5.626
  115DIO     O2 6403   8.625   9.737   5.594
  115DIO    C14 6404   8.497   9.927   5.609
  115DIO    C15 6405   8.431   9.998   5.720
  115DIO     F5 6406   8.493  10.011   5.839
  115DIO    C16 6407   8.300  10.059   5.707
  115DIO    C17 6408   8.224  10.046   5.583
  115DIO    C18 6409   8.293   9.991   5.466
  115DIO    C19 6410   8.424   9.931   5.480
  115DIO     F6 6411   8.487   9.896   5.365
  115DIO    C20 6412   8.083  10.100   5.571
  115DIO     O3 6413   8.014  10.107   5.696
  115DIO    C21 6414   7.970   9.980   5.742
  115DIO    C22 6415   7.881   9.912   5.638
  115DIO    C23 6416   7.962   9.905   5.508
  115DIO     O4 6417   8.006  10.035   5.469
  115DIO    C24 6418   7.748   9.987   5.613
  115DIO    C25 6419   7.658  10.004   5.736
  115DIO    C26 6420   7.619   9.873   5.803
  115DIO     H1 6421   9.340   9.982   5.523
  115DIO     H2 6422   9.298   9.736   5.889
  115DIO     H3 6423   9.122   9.956   5.911
  115DIO     H4 6424   8.870   9.983   5.898
  115DIO     H5 6425   8.871   9.838   5.486
  115DIO     H6 6426   8.262  10.118   5.789
  115DIO     H7 6427   8.250   9.999   5.367
  115DIO     H8 6428   8.093  10.204   5.538
  115DIO     H9 6429   8.057   9.917   5.765
  115DIO    H10 6430   7.917   9.994   5.836
  115DIO    H11 6431   7.859   9.810   5.670
  115DIO    H12 6432   7.901   9.865   5.427
  115DIO    H13 6433   8.048   9.838   5.519
  115DIO    H14 6434   7.768  10.087   5.572
  115DIO    H15 6435   7.692   9.933   5.536
  115DIO    H16 6436   7.705  10.070   5.809
  115DIO    H17 6437   7.566  10.055   5.704
  115DIO    H18 6438   7.575   9.803   5.731
  115DIO    H19 6439   7.706   9.825   5.849
  115DIO    H20 6440   7.546   9.891   5.881
  116DIO     F1 6441   7.655   1.009   0.514
  116DIO     C1 6442   7.577   1.041   0.409
  116DIO     C2 6443   7.433   1.028   0.420
  116DIO     C3 6444   7.345   1.061   0.306
  116DIO     C4 6445   7.410   1.108   0.182
  116DIO     C5 6446   7.554   1.120   0.173
  116DIO     F2 6447   7.610   1.168   0.060
  116DIO     C6 6448   7.638   1.087   0.286
  116DIO     F3 6449   7.772   1.097   0.276
  116DIO     C7 6450   7.198   1.048   0.315
  116DIO     C8 6451   7.121   0.974   0.213
  116DIO     C9 6452   6.976   0.962   0.221
  116DIO    C10 6453   6.904   1.030   0.327
  116DIO    C11 6454   6.976   1.097   0.433
  116DIO    C12 6455   7.120   1.107   0.426
  116DIO     F4 6456   7.185   1.174   0.523
  116DIO     O1 6457   6.772   0.995   0.343
  116DIO    C13 6458   6.677   1.088   0.384
  116DIO     O2 6459   6.676   1.214   0.384
  116DIO    C14 6460   6.548   1.027   0.417
  116DIO    C15 6461   6.482   0.930   0.327
  116DIO     F5 6462   6.544   0.889   0.215
  116DIO    C16 6463   6.351   0.874   0.355
  116DIO    C17 6464   6.275   0.918   0.472
  116DIO    C18 6465   6.344   1.000   0.571
  116DIO    C19 6466   6.475   1.054   0.544
  116DIO     F6 6467   6.538   1.117   0.645
  116DIO    C20 6468   6.134   0.868   0.497
  116DIO     O3 6469   6.065   0.831   0.378
  116DIO    C21 6470   6.021   0.943   0.302
  116DIO    C22 6471   5.932   1.034   0.385
  116DIO    C23 6472   6.013   1.073   0.509
  116DIO     O4 6473   6.057   0.957   0.579
  116DIO    C24 6474   5.799   0.968   0.428
  116DIO    C25 6475   5.709   0.921   0.313
  116DIO    C26 6476   5.670   1.031   0.216
  116DIO     H1 6477   7.391   0.995   0.514
  116DIO     H2 6478   7.349   1.143   0.099
  116DIO     H3 6479   7.173   0.924   0.132
  116DIO     H4 6480   6.921   0.901   0.151
  116DIO     H5 6481   6.922   1.143   0.514
  116DIO     H6 6482   6.313   0.797   0.289
  116DIO     H7 6483   6.301   1.016   0.669
  116DIO     H8 6484   6.144   0.776   0.555
  116DIO     H9 6485   6.108   0.998   0.264
  116DIO    H10 6486   5.968   0.905   0.214
  116DIO    H11 6487   5.910   1.125   0.329
  116DIO    H12 6488   5.952   1.132   0.578
  116DIO    H13 6489   6.099   1.135   0.482
  116DIO    H14 6490   5.819   0.881   0.492
  116DIO    H15 6491   5.743   1.039   0.489
  116DIO    H16 6492   5.756   0.839   0.258
  116DIO    H17 6493   5.617   0.879   0.357
  116DIO    H18 6494   5.626   1.117   0.269
  116DIO    H19 6495   5.757   1.067   0.159
  116DIO    H20 6496   5.597   0.994   0.144
  117DIO     F1 6497   9.533   4.183   7.541
  117DIO     C1 6498   9.455   4.095   7.606
  117DIO     C2 6499   9.311   4.112   7.604
  117DIO     C3 6500   9.222   4.017   7.676
  117DIO     C4 6501   9.288   3.905   7.747
  117DIO     C5 6502   9.432   3.890   7.747
  117DIO     F2 6503   9.487   3.784   7.809
  117DIO     C6 6504   9.516   3.984   7.676
  117DIO     F3 6505   9.649   3.970   7.678
  117DIO     C7 6506   9.076   4.033   7.676
  117DIO     C8 6507   8.999   4.031   7.803
  117DIO     C9 6508   8.854   4.046   7.803
  117DIO    C10 6509   8.781   4.054   7.678
  117DIO    C11 6510   8.854   4.064   7.552
  117DIO    C12 6511   8.998   4.052   7.552
  117DIO     F4 6512   9.063   4.056   7.434
  117DIO     O1 6513   8.649   4.092   7.686
  117DIO    C13 6514   8.555   4.042   7.597
  117DIO     O2 6515   8.554   3.941   7.521
  117DIO    C14 6516   8.425   4.111   7.607
  117DIO    C15 6517   8.359   4.134   7.737
  117DIO     F5 6518   8.422   4.101   7.852
  117DIO    C16 6519   8.228   4.196   7.748
  117DIO    C17 6520   8.153   4.232   7.629
  117DIO    C18 6521   8.221   4.225   7.500
  117DIO    C19 6522   8.353   4.165   7.489
  117DIO     F6 6523   8.415   4.175   7.370
  117DIO    C20 6524   8.012   4.286   7.638
  117DIO     O3 6525   7.942   4.244   7.756
  117DIO    C21 6526   7.898   4.109   7.750
  117DIO    C22 6527   7.810   4.086   7.628
  117DIO    C23 6528   7.890   4.129   7.506
  117DIO     O4 6529   7.935   4.264   7.520
  117DIO    C24 6530   7.677   4.165   7.634
  117DIO    C25 6531   7.586   4.134   7.754
  117DIO    C26 6532   7.548   3.987   7.765
  117DIO     H1 6533   9.268   4.195   7.549
  117DIO     H2 6534   9.227   3.828   7.793
  117DIO     H3 6535   9.050   4.023   7.897
  117DIO     H4 6536   8.799   4.053   7.896
  117DIO     H5 6537   8.799   4.076   7.459
  117DIO     H6 6538   8.190   4.219   7.847
  117DIO     H7 6539   8.178   4.270   7.412
  117DIO     H8 6540   8.022   4.394   7.647
  117DIO     H9 6541   7.985   4.042   7.747
  117DIO    H10 6542   7.846   4.086   7.843
  117DIO    H11 6543   7.787   3.979   7.619
  117DIO    H12 6544   7.829   4.124   7.415
  117DIO    H13 6545   7.976   4.063   7.490
  117DIO    H14 6546   7.697   4.273   7.634
  117DIO    H15 6547   7.620   4.144   7.542
  117DIO    H16 6548   7.633   4.167   7.847
  117DIO    H17 6549   7.494   4.193   7.744
  117DIO    H18 6550   7.504   3.950   7.672
  117DIO    H19 6551   7.634   3.925   7.790
  117DIO    H20 6552   7.474   3.974   7.845
  118DIO     F1 6553   4.750   1.131   6.481
  118DIO     C1 6554   4.672   1.241   6.472
  118DIO     C2 6555   4.528   1.225   6.465
  118DIO     C3 6556   4.439   1.343   6.453
  118DIO     C4 6557   4.505   1.476   6.452
  118DIO     C5 6558   4.649   1.489   6.460
  118DIO     F2 6559   4.705   1.611   6.463
  118DIO     C6 6560   4.733   1.372   6.470
  118DIO     F3 6561   4.867   1.385   6.476
  118DIO     C7 6562   4.293   1.330   6.445
  118DIO     C8 6563   4.216   1.398   6.339
  118DIO     C9 6564   4.071   1.386   6.330
  118DIO    C10 6565   3.999   1.313   6.433
  118DIO    C11 6566   4.071   1.238   6.534
  118DIO    C12 6567   4.215   1.249   6.540
  118DIO     F4 6568   4.280   1.183   6.639
  118DIO     O1 6569   3.866   1.285   6.405
  118DIO    C13 6570   3.772   1.281   6.507
  118DIO     O2 6571   3.771   1.326   6.625
  118DIO    C14 6572   3.643   1.228   6.463
  118DIO    C15 6573   3.577   1.276   6.340
  118DIO     F5 6574   3.639   1.365   6.260
  118DIO    C16 6575   3.446   1.229   6.298
  118DIO    C17 6576   3.370   1.136   6.381
  118DIO    C18 6577   3.439   1.074   6.493
  118DIO    C19 6578   3.570   1.120   6.534
  118DIO     F6 6579   3.633   1.048   6.630
  118DIO    C20 6580   3.229   1.096   6.344
  118DIO     O3 6581   3.160   1.193   6.265
  118DIO    C21 6582   3.116   1.304   6.342
  118DIO    C22 6583   3.027   1.260   6.458
  118DIO    C23 6584   3.108   1.159   6.539
  118DIO     O4 6585   3.152   1.051   6.456
  118DIO    C24 6586   2.894   1.196   6.411
  118DIO    C25 6587   2.804   1.286   6.326
  118DIO    C26 6588   2.765   1.416   6.393
  118DIO     H1 6589   4.486   1.126   6.468
  118DIO     H2 6590   4.444   1.566   6.454
  118DIO     H3 6591   4.267   1.455   6.262
  118DIO     H4 6592   4.016   1.429   6.248
  118DIO     H5 6593   4.017   1.180   6.607
  118DIO     H6 6594   3.408   1.262   6.202
  118DIO     H7 6595   3.396   0.989   6.545
  118DIO     H8 6596   3.239   1.008   6.279
  118DIO     H9 6597   3.203   1.360   6.379
  118DIO    H10 6598   3.063   1.373   6.275
  118DIO    H11 6599   3.004   1.346   6.522
  118DIO    H12 6600   3.047   1.116   6.619
  118DIO    H13 6601   3.194   1.207   6.587
  118DIO    H14 6602   2.914   1.104   6.354
  118DIO    H15 6603   2.838   1.165   6.500
  118DIO    H16 6604   2.851   1.307   6.229
  118DIO    H17 6605   2.712   1.230   6.303
  118DIO    H18 6606   2.721   1.399   6.492
  118DIO    H19 6607   2.852   1.482   6.405
  118DIO    H20 6608   2.691   1.470   6.332
  119DIO     F1 6609   1.973   9.391   1.474
  119DIO     C1 6610   1.895   9.286   1.442
  119DIO     C2 6611   1.751   9.298   1.454
  119DIO     C3 6612   1.662   9.184   1.422
  119DIO     C4 6613   1.728   9.059   1.375
  119DIO     C5 6614   1.872   9.051   1.363
  119DIO     F2 6615   1.927   8.937   1.316
  119DIO     C6 6616   1.956   9.163   1.396
  119DIO     F3 6617   2.089   9.154   1.386
  119DIO     C7 6618   1.516   9.193   1.435
  119DIO     C8 6619   1.439   9.090   1.509
  119DIO     C9 6620   1.294   9.099   1.521
  119DIO    C10 6621   1.221   9.204   1.453
  119DIO    C11 6622   1.294   9.311   1.386
  119DIO    C12 6623   1.438   9.303   1.376
  119DIO     F4 6624   1.503   9.401   1.308
  119DIO     O1 6625   1.089   9.220   1.488
  119DIO    C13 6626   0.995   9.261   1.395
  119DIO     O2 6627   0.994   9.262   1.269
  119DIO    C14 6628   0.866   9.295   1.456
  119DIO    C15 6629   0.799   9.205   1.552
  119DIO     F5 6630   0.862   9.093   1.594
  119DIO    C16 6631   0.668   9.233   1.609
  119DIO    C17 6632   0.593   9.350   1.565
  119DIO    C18 6633   0.661   9.449   1.483
  119DIO    C19 6634   0.793   9.421   1.428
  119DIO     F6 6635   0.856   9.523   1.365
  119DIO    C20 6636   0.452   9.374   1.614
  119DIO     O3 6637   0.382   9.255   1.652
  119DIO    C21 6638   0.339   9.179   1.540
  119DIO    C22 6639   0.250   9.263   1.449
  119DIO    C23 6640   0.330   9.387   1.410
  119DIO     O4 6641   0.375   9.457   1.526
  119DIO    C24 6642   0.117   9.305   1.515
  119DIO    C25 6643   0.026   9.191   1.562
  119DIO    C26 6644  -0.012   9.094   1.452
  119DIO     H1 6645   1.708   9.391   1.488
  119DIO     H2 6646   1.667   8.976   1.340
  119DIO     H3 6647   1.490   9.010   1.559
  119DIO     H4 6648   1.239   9.029   1.582
  119DIO     H5 6649   1.239   9.392   1.339
  119DIO     H6 6650   0.630   9.167   1.686
  119DIO     H7 6651   0.619   9.547   1.466
  119DIO     H8 6652   0.462   9.433   1.707
  119DIO     H9 6653   0.425   9.141   1.485
  119DIO    H10 6654   0.286   9.091   1.578
  119DIO    H11 6655   0.227   9.206   1.358
  119DIO    H12 6656   0.269   9.456   1.351
  119DIO    H13 6657   0.417   9.359   1.348
  119DIO    H14 6658   0.137   9.370   1.602
  119DIO    H15 6659   0.060   9.366   1.444
  119DIO    H16 6660   0.074   9.136   1.644
  119DIO    H17 6661  -0.066   9.235   1.603
  119DIO    H18 6662  -0.056   9.146   1.366
  119DIO    H19 6663   0.074   9.037   1.417
  119DIO    H20 6664  -0.086   9.022   1.489
  120DIO     F1 6665   8.014   1.000   3.644
  120DIO     C1 6666   7.937   1.105   3.611
  120DIO     C2 6667   7.792   1.089   3.607
  120DIO     C3 6668   7.704   1.201   3.570
  120DIO     C4 6669   7.769   1.331   3.540
  120DIO     C5 6670   7.913   1.345   3.545
  120DIO     F2 6671   7.969   1.465   3.521
  120DIO     C6 6672   7.997   1.233   3.581
  120DIO     F3 6673   8.131   1.247   3.584
  120DIO     C7 6674   7.557   1.186   3.565
  120DIO     C8 6675   7.480   1.230   3.446
  120DIO     C9 6676   7.335   1.216   3.441
  120DIO    C10 6677   7.263   1.167   3.557
  120DIO    C11 6678   7.335   1.116   3.672
  120DIO    C12 6679   7.479   1.128   3.676
  120DIO     F4 6680   7.544   1.085   3.786
  120DIO     O1 6681   7.131   1.134   3.536
  120DIO    C13 6682   7.036   1.152   3.637
  120DIO     O2 6683   7.035   1.222   3.741
  120DIO    C14 6684   6.907   1.090   3.605
  120DIO    C15 6685   6.841   1.111   3.474
  120DIO     F5 6686   6.903   1.180   3.377
  120DIO    C16 6687   6.710   1.056   3.443
  120DIO    C17 6688   6.634   0.984   3.545
  120DIO    C18 6689   6.703   0.947   3.668
  120DIO    C19 6690   6.835   1.001   3.698
  120DIO     F6 6691   6.897   0.952   3.807
  120DIO    C20 6692   6.493   0.936   3.518
  120DIO     O3 6693   6.424   1.013   3.420
  120DIO    C21 6694   6.380   1.139   3.470
  120DIO    C22 6695   6.291   1.121   3.593
  120DIO    C23 6696   6.372   1.040   3.694
  120DIO     O4 6697   6.416   0.917   3.637
  120DIO    C24 6698   6.158   1.048   3.561
  120DIO    C25 6699   6.068   1.117   3.459
  120DIO    C26 6700   6.029   1.259   3.496
  120DIO     H1 6701   7.750   0.992   3.632
  120DIO     H2 6702   7.709   1.419   3.522
  120DIO     H3 6703   7.532   1.269   3.359
  120DIO     H4 6704   7.280   1.240   3.351
  120DIO     H5 6705   7.281   1.075   3.756
  120DIO     H6 6706   6.672   1.068   3.343
  120DIO     H7 6707   6.660   0.876   3.737
  120DIO     H8 6708   6.503   0.836   3.473
  120DIO     H9 6709   6.467   1.201   3.495
  120DIO    H10 6710   6.327   1.191   3.390
  120DIO    H11 6711   6.269   1.219   3.636
  120DIO    H12 6712   6.311   1.015   3.782
  120DIO    H13 6713   6.458   1.097   3.730
  120DIO    H14 6714   6.178   0.947   3.526
  120DIO    H15 6715   6.102   1.038   3.655
  120DIO    H16 6716   6.115   1.117   3.360
  120DIO    H17 6717   5.976   1.058   3.449
  120DIO    H18 6718   5.985   1.264   3.596
  120DIO    H19 6719   6.116   1.326   3.493
  120DIO    H20 6720   5.956   1.298   3.425
  121DIO     F1 6721   1.150   5.445   2.867
  121DIO     C1 6722   1.072   5.353   2.926
  121DIO     C2 6723   0.928   5.370   2.926
  121DIO     C3 6724   0.839   5.271   2.992
  121DIO     C4 6725   0.905   5.154   3.055
  121DIO     C5 6726   1.049   5.140   3.054
  121DIO     F2 6727   1.104   5.030   3.110
  121DIO     C6 6728   1.133   5.238   2.990
  121DIO     F3 6729   1.266   5.224   2.991
  121DIO     C7 6730   0.693   5.287   2.993
  121DIO     C8 6731   0.616   5.277   3.119
  121DIO     C9 6732   0.471   5.292   3.120
  121DIO    C10 6733   0.398   5.308   2.996
  121DIO    C11 6734   0.471   5.326   2.871
  121DIO    C12 6735   0.615   5.313   2.870
  121DIO     F4 6736   0.680   5.325   2.753
  121DIO     O1 6737   0.266   5.345   3.007
  121DIO    C13 6738   0.172   5.301   2.915
  121DIO     O2 6739   0.171   5.205   2.832
  121DIO    C14 6740   0.042   5.369   2.929
  121DIO    C15 6741  -0.024   5.384   3.060
  121DIO     F5 6742   0.039   5.343   3.172
  121DIO    C16 6743  -0.155   5.445   3.075
  121DIO    C17 6744  -0.230   5.488   2.958
  121DIO    C18 6745  -0.162   5.490   2.830
  121DIO    C19 6746  -0.030   5.430   2.815
  121DIO     F6 6747   0.032   5.448   2.697
  121DIO    C20 6748  -0.371   5.541   2.971
  121DIO     O3 6749  -0.441   5.493   3.086
  121DIO    C21 6750  -0.485   5.358   3.071
  121DIO    C22 6751  -0.573   5.343   2.948
  121DIO    C23 6752  -0.493   5.394   2.829
  121DIO     O4 6753  -0.448   5.527   2.851
  121DIO    C24 6754  -0.706   5.421   2.960
  121DIO    C25 6755  -0.797   5.382   3.077
  121DIO    C26 6756  -0.835   5.235   3.079
  121DIO     H1 6757   0.885   5.456   2.876
  121DIO     H2 6758   0.844   5.074   3.096
  121DIO     H3 6759   0.667   5.263   3.213
  121DIO     H4 6760   0.416   5.293   3.213
  121DIO     H5 6761   0.416   5.343   2.779
  121DIO     H6 6762  -0.193   5.461   3.175
  121DIO     H7 6763  -0.205   5.540   2.744
  121DIO     H8 6764  -0.361   5.649   2.987
  121DIO     H9 6765  -0.398   5.291   3.065
  121DIO    H10 6766  -0.537   5.329   3.163
  121DIO    H11 6767  -0.596   5.237   2.933
  121DIO    H12 6768  -0.554   5.394   2.738
  121DIO    H13 6769  -0.407   5.329   2.810
  121DIO    H14 6770  -0.686   5.529   2.966
  121DIO    H15 6771  -0.763   5.406   2.867
  121DIO    H16 6772  -0.750   5.409   3.172
  121DIO    H17 6773  -0.889   5.442   3.070
  121DIO    H18 6774  -0.879   5.204   2.984
  121DIO    H19 6775  -0.749   5.171   3.100
  121DIO    H20 6776  -0.909   5.217   3.158
  122DIO     F1 6777   7.601   9.157  -0.867
  122DIO     C1 6778   7.524   9.057  -0.913
  122DIO     C2 6779   7.380   9.067  -0.899
  122DIO     C3 6780   7.291   8.959  -0.948
  122DIO     C4 6781   7.356   8.842  -1.012
  122DIO     C5 6782   7.501   8.835  -1.025
  122DIO     F2 6783   7.556   8.730  -1.088
  122DIO     C6 6784   7.584   8.942  -0.976
  122DIO     F3 6785   7.718   8.934  -0.988
  122DIO     C7 6786   7.145   8.966  -0.933
  122DIO     C8 6787   7.067   8.854  -0.875
  122DIO     C9 6788   6.923   8.861  -0.861
  122DIO    C10 6789   6.850   8.974  -0.914
  122DIO    C11 6790   6.923   9.090  -0.965
  122DIO    C12 6791   7.067   9.084  -0.977
  122DIO     F4 6792   7.132   9.189  -1.029
  122DIO     O1 6793   6.718   8.985  -0.877
  122DIO    C13 6794   6.623   9.039  -0.964
  122DIO     O2 6795   6.623   9.058  -1.088
  122DIO    C14 6796   6.494   9.064  -0.899
  122DIO    C15 6797   6.428   8.961  -0.816
  122DIO     F5 6798   6.491   8.844  -0.790
  122DIO    C16 6799   6.297   8.981  -0.756
  122DIO    C17 6800   6.221   9.102  -0.782
  122DIO    C18 6801   6.290   9.212  -0.849
  122DIO    C19 6802   6.422   9.193  -0.908
  122DIO     F6 6803   6.484   9.302  -0.955
  122DIO    C20 6804   6.081   9.120  -0.730
  122DIO     O3 6805   6.011   8.997  -0.710
  122DIO    C21 6806   5.967   8.937  -0.832
  122DIO    C22 6807   5.878   9.033  -0.910
  122DIO    C23 6808   5.959   9.161  -0.931
  122DIO     O4 6809   6.003   9.214  -0.806
  122DIO    C24 6810   5.746   9.065  -0.838
  122DIO    C25 6811   5.655   8.946  -0.808
  122DIO    C26 6812   5.617   8.865  -0.931
  122DIO     H1 6813   7.337   9.155  -0.853
  122DIO     H2 6814   7.296   8.765  -1.058
  122DIO     H3 6815   7.119   8.767  -0.837
  122DIO     H4 6816   6.868   8.782  -0.811
  122DIO     H5 6817   6.868   9.176  -1.000
  122DIO     H6 6818   6.259   8.905  -0.689
  122DIO     H7 6819   6.247   9.311  -0.852
  122DIO     H8 6820   6.090   9.164  -0.630
  122DIO     H9 6821   6.054   8.907  -0.891
  122DIO    H10 6822   5.915   8.845  -0.807
  122DIO    H11 6823   5.856   8.990  -1.008
  122DIO    H12 6824   5.898   9.238  -0.979
  122DIO    H13 6825   6.045   9.143  -0.996
  122DIO    H14 6826   5.766   9.117  -0.743
  122DIO    H15 6827   5.689   9.136  -0.900
  122DIO    H16 6828   5.702   8.880  -0.734
  122DIO    H17 6829   5.563   8.983  -0.761
  122DIO    H18 6830   5.573   8.929  -1.008
  122DIO    H19 6831   5.703   8.814  -0.974
  122DIO    H20 6832   5.543   8.789  -0.904
  123DIO     F1 6833   8.441   3.350   3.388
  123DIO     C1 6834   8.363   3.458   3.409
  123DIO     C2 6835   8.219   3.445   3.398
  123DIO     C3 6836   8.130   3.562   3.418
  123DIO     C4 6837   8.196   3.690   3.452
  123DIO     C5 6838   8.340   3.700   3.463
  123DIO     F2 6839   8.396   3.818   3.498
  123DIO     C6 6840   8.424   3.585   3.442
  123DIO     F3 6841   8.558   3.596   3.451
  123DIO     C7 6842   7.984   3.551   3.406
  123DIO     C8 6843   7.907   3.645   3.322
  123DIO     C9 6844   7.762   3.635   3.311
  123DIO    C10 6845   7.690   3.538   3.390
  123DIO    C11 6846   7.762   3.439   3.468
  123DIO    C12 6847   7.906   3.448   3.477
  123DIO     F4 6848   7.971   3.358   3.554
  123DIO     O1 6849   7.557   3.518   3.356
  123DIO    C13 6850   7.463   3.488   3.454
  123DIO     O2 6851   7.462   3.500   3.579
  123DIO    C14 6852   7.334   3.448   3.397
  123DIO    C15 6853   7.268   3.527   3.291
  123DIO     F5 6854   7.330   3.634   3.237
  123DIO    C16 6855   7.137   3.493   3.238
  123DIO    C17 6856   7.061   3.382   3.293
  123DIO    C18 6857   7.130   3.292   3.385
  123DIO    C19 6858   7.261   3.325   3.437
  123DIO     F6 6859   7.324   3.230   3.510
  123DIO    C20 6860   6.920   3.352   3.247
  123DIO     O3 6861   6.851   3.466   3.197
  123DIO    C21 6862   6.807   3.554   3.301
  123DIO    C22 6863   6.718   3.480   3.400
  123DIO    C23 6864   6.799   3.361   3.452
  123DIO     O4 6865   6.843   3.280   3.344
  123DIO    C24 6866   6.585   3.431   3.338
  123DIO    C25 6867   6.495   3.540   3.280
  123DIO    C26 6868   6.456   3.648   3.379
  123DIO     H1 6869   8.177   3.348   3.375
  123DIO     H2 6870   8.135   3.777   3.478
  123DIO     H3 6871   7.958   3.720   3.263
  123DIO     H4 6872   7.707   3.699   3.243
  123DIO     H5 6873   7.708   3.363   3.522
  123DIO     H6 6874   7.099   3.550   3.154
  123DIO     H7 6875   7.087   3.196   3.412
  123DIO     H8 6876   6.930   3.284   3.161
  123DIO     H9 6877   6.894   3.597   3.351
  123DIO    H10 6878   6.754   3.637   3.254
  123DIO    H11 6879   6.695   3.546   3.485
  123DIO    H12 6880   6.738   3.299   3.518
  123DIO    H13 6881   6.885   3.395   3.511
  123DIO    H14 6882   6.605   3.358   3.259
  123DIO    H15 6883   6.529   3.378   3.416
  123DIO    H16 6884   6.542   3.586   3.192
  123DIO    H17 6885   6.403   3.492   3.243
  123DIO    H18 6886   6.412   3.605   3.470
  123DIO    H19 6887   6.543   3.709   3.408
  123DIO    H20 6888   6.382   3.716   3.335
  124DIO     F1 6889   2.053   8.489   4.503
  124DIO     C1 6890   1.975   8.568   4.427
  124DIO     C2 6891   1.831   8.552   4.431
  124DIO     C3 6892   1.742   8.635   4.347
  124DIO     C4 6893   1.808   8.737   4.261
  124DIO     C5 6894   1.952   8.752   4.259
  124DIO     F2 6895   2.007   8.848   4.183
  124DIO     C6 6896   2.036   8.668   4.342
  124DIO     F3 6897   2.170   8.682   4.338
  124DIO     C7 6898   1.596   8.619   4.348
  124DIO     C8 6899   1.519   8.605   4.223
  124DIO     C9 6900   1.374   8.590   4.224
  124DIO    C10 6901   1.301   8.599   4.350
  124DIO    C11 6902   1.374   8.606   4.475
  124DIO    C12 6903   1.518   8.618   4.474
  124DIO     F4 6904   1.583   8.630   4.591
  124DIO     O1 6905   1.169   8.560   4.347
  124DIO    C13 6906   1.075   8.622   4.428
  124DIO     O2 6907   1.074   8.732   4.489
  124DIO    C14 6908   0.946   8.552   4.428
  124DIO    C15 6909   0.879   8.511   4.302
  124DIO     F5 6910   0.942   8.529   4.184
  124DIO    C16 6911   0.749   8.448   4.299
  124DIO    C17 6912   0.673   8.430   4.422
  124DIO    C18 6913   0.742   8.453   4.549
  124DIO    C19 6914   0.873   8.515   4.551
  124DIO     F6 6915   0.936   8.521   4.671
  124DIO    C20 6916   0.532   8.375   4.420
  124DIO     O3 6917   0.462   8.400   4.298
  124DIO    C21 6918   0.419   8.535   4.285
  124DIO    C22 6919   0.330   8.574   4.403
  124DIO    C23 6920   0.411   8.548   4.530
  124DIO     O4 6921   0.455   8.412   4.535
  124DIO    C24 6922   0.197   8.495   4.408
  124DIO    C25 6923   0.106   8.510   4.285
  124DIO    C26 6924   0.068   8.653   4.253
  124DIO     H1 6925   1.788   8.477   4.496
  124DIO     H2 6926   1.747   8.807   4.205
  124DIO     H3 6927   1.570   8.600   4.128
  124DIO     H4 6928   1.319   8.570   4.133
  124DIO     H5 6929   1.320   8.607   4.569
  124DIO     H6 6930   0.710   8.413   4.204
  124DIO     H7 6931   0.699   8.421   4.643
  124DIO     H8 6932   0.542   8.266   4.426
  124DIO     H9 6933   0.505   8.601   4.279
  124DIO    H10 6934   0.366   8.544   4.190
  124DIO    H11 6935   0.307   8.681   4.397
  124DIO    H12 6936   0.349   8.566   4.619
  124DIO    H13 6937   0.497   8.615   4.536
  124DIO    H14 6938   0.217   8.388   4.422
  124DIO    H15 6939   0.141   8.528   4.496
  124DIO    H16 6940   0.154   8.464   4.197
  124DIO    H17 6941   0.015   8.452   4.303
  124DIO    H18 6942   0.024   8.703   4.341
  124DIO    H19 6943   0.154   8.712   4.221
  124DIO    H20 6944  -0.006   8.655   4.173
  125DIO     F1 6945   1.977   6.386   5.165
  125DIO     C1 6946   1.899   6.455   5.251
  125DIO     C2 6947   1.755   6.452   5.234
  125DIO     C3 6948   1.666   6.528   5.325
  125DIO     C4 6949   1.732   6.604   5.434
  125DIO     C5 6950   1.876   6.605   5.449
  125DIO     F2 6951   1.931   6.671   5.552
  125DIO     C6 6952   1.960   6.530   5.358
  125DIO     F3 6953   2.094   6.533   5.372
  125DIO     C7 6954   1.520   6.528   5.309
  125DIO     C8 6955   1.443   6.654   5.306
  125DIO     C9 6956   1.298   6.654   5.291
  125DIO    C10 6957   1.225   6.529   5.288
  125DIO    C11 6958   1.298   6.403   5.283
  125DIO    C12 6959   1.442   6.403   5.296
  125DIO     F4 6960   1.507   6.285   5.296
  125DIO     O1 6961   1.093   6.535   5.249
  125DIO    C13 6962   0.999   6.449   5.304
  125DIO     O2 6963   0.998   6.377   5.407
  125DIO    C14 6964   0.870   6.455   5.234
  125DIO    C15 6965   0.803   6.584   5.205
  125DIO     F5 6966   0.866   6.701   5.234
  125DIO    C16 6967   0.673   6.593   5.143
  125DIO    C17 6968   0.597   6.472   5.113
  125DIO    C18 6969   0.666   6.344   5.125
  125DIO    C19 6970   0.797   6.336   5.186
  125DIO     F6 6971   0.860   6.216   5.180
  125DIO    C20 6972   0.456   6.479   5.059
  125DIO     O3 6973   0.386   6.599   5.095
  125DIO    C21 6974   0.343   6.599   5.230
  125DIO    C22 6975   0.254   6.478   5.258
  125DIO    C23 6976   0.335   6.354   5.220
  125DIO     O4 6977   0.379   6.362   5.085
  125DIO    C24 6978   0.121   6.481   5.179
  125DIO    C25 6979   0.030   6.601   5.205
  125DIO    C26 6980  -0.008   6.619   5.351
  125DIO     H1 6981   1.712   6.394   5.153
  125DIO     H2 6982   1.671   6.653   5.509
  125DIO     H3 6983   1.494   6.749   5.310
  125DIO     H4 6984   1.243   6.747   5.280
  125DIO     H5 6985   1.244   6.310   5.276
  125DIO     H6 6986   0.634   6.691   5.117
  125DIO     H7 6987   0.623   6.254   5.083
  125DIO     H8 6988   0.466   6.484   4.949
  125DIO     H9 6989   0.429   6.599   5.297
  125DIO    H10 6990   0.290   6.692   5.249
  125DIO    H11 6991   0.231   6.473   5.365
  125DIO    H12 6992   0.273   6.263   5.230
  125DIO    H13 6993   0.421   6.341   5.287
  125DIO    H14 6994   0.141   6.476   5.072
  125DIO    H15 6995   0.065   6.390   5.204
  125DIO    H16 6996   0.078   6.693   5.168
  125DIO    H17 6997  -0.061   6.589   5.146
  125DIO    H18 6998  -0.052   6.528   5.392
  125DIO    H19 6999   0.078   6.646   5.413
  125DIO    H20 7000  -0.082   6.700   5.361
  126DIO     F1 7001   5.322   1.049   0.371
  126DIO     C1 7002   5.245   1.062   0.480
  126DIO     C2 7003   5.101   1.068   0.465
  126DIO     C3 7004   5.012   1.085   0.582
  126DIO     C4 7005   5.077   1.091   0.715
  126DIO     C5 7006   5.222   1.084   0.728
  126DIO     F2 7007   5.277   1.086   0.850
  126DIO     C6 7008   5.305   1.069   0.611
  126DIO     F3 7009   5.439   1.063   0.624
  126DIO     C7 7010   4.866   1.093   0.568
  126DIO     C8 7011   4.788   1.202   0.633
  126DIO     C9 7012   4.644   1.209   0.620
  126DIO    C10 7013   4.571   1.104   0.551
  126DIO    C11 7014   4.644   1.000   0.480
  126DIO    C12 7015   4.788   0.994   0.491
  126DIO     F4 7016   4.853   0.893   0.429
  126DIO     O1 7017   4.439   1.130   0.522
  126DIO    C13 7018   4.344   1.028   0.522
  126DIO     O2 7019   4.344   0.913   0.572
  126DIO    C14 7020   4.215   1.071   0.467
  126DIO    C15 7021   4.149   1.195   0.511
  126DIO     F5 7022   4.212   1.279   0.596
  126DIO    C16 7023   4.018   1.236   0.462
  126DIO    C17 7024   3.942   1.149   0.373
  126DIO    C18 7025   4.011   1.034   0.315
  126DIO    C19 7026   4.143   0.995   0.362
  126DIO     F6 7027   4.205   0.897   0.294
  126DIO    C20 7028   3.802   1.184   0.330
  126DIO     O3 7029   3.732   1.267   0.424
  126DIO    C21 7030   3.688   1.194   0.539
  126DIO    C22 7031   3.599   1.077   0.499
  126DIO    C23 7032   3.680   0.992   0.401
  126DIO     O4 7033   3.724   1.070   0.290
  126DIO    C24 7034   3.467   1.121   0.434
  126DIO    C25 7035   3.376   1.210   0.520
  126DIO    C26 7036   3.338   1.148   0.653
  126DIO     H1 7037   5.058   1.062   0.365
  126DIO     H2 7038   5.017   1.093   0.805
  126DIO     H3 7039   4.840   1.280   0.687
  126DIO     H4 7040   4.589   1.293   0.660
  126DIO     H5 7041   4.589   0.925   0.424
  126DIO     H6 7042   3.980   1.333   0.492
  126DIO     H7 7043   3.968   0.980   0.232
  126DIO     H8 7044   3.811   1.246   0.240
  126DIO     H9 7045   3.775   1.159   0.596
  126DIO    H10 7046   3.636   1.264   0.605
  126DIO    H11 7047   3.577   1.017   0.587
  126DIO    H12 7048   3.619   0.910   0.361
  126DIO    H13 7049   3.766   0.946   0.451
  126DIO    H14 7050   3.487   1.174   0.340
  126DIO    H15 7051   3.410   1.031   0.406
  126DIO    H16 7052   3.423   1.307   0.537
  126DIO    H17 7053   3.284   1.230   0.463
  126DIO    H18 7054   3.294   1.048   0.639
  126DIO    H19 7055   3.424   1.138   0.719
  126DIO    H20 7056   3.264   1.211   0.704
  127DIO     F1 7057   6.748   1.091   9.354
  127DIO     C1 7058   6.670   1.092   9.464
  127DIO     C2 7059   6.526   1.100   9.449
  127DIO     C3 7060   6.437   1.103   9.568
  127DIO     C4 7061   6.503   1.095   9.700
  127DIO     C5 7062   6.647   1.087   9.712
  127DIO     F2 7063   6.702   1.076   9.834
  127DIO     C6 7064   6.731   1.085   9.595
  127DIO     F3 7065   6.864   1.078   9.607
  127DIO     C7 7066   6.291   1.113   9.555
  127DIO     C8 7067   6.214   1.214   9.631
  127DIO     C9 7068   6.069   1.224   9.619
  127DIO    C10 7069   5.996   1.126   9.539
  127DIO    C11 7070   6.069   1.031   9.457
  127DIO    C12 7071   6.213   1.023   9.467
  127DIO     F4 7072   6.278   0.930   9.395
  127DIO     O1 7073   5.864   1.156   9.513
  127DIO    C13 7074   5.770   1.054   9.502
  127DIO     O2 7075   5.769   0.934   9.539
  127DIO    C14 7076   5.641   1.102   9.451
  127DIO    C15 7077   5.574   1.221   9.508
  127DIO     F5 7078   5.637   1.295   9.603
  127DIO    C16 7079   5.443   1.267   9.465
  127DIO    C17 7080   5.368   1.190   9.366
  127DIO    C18 7081   5.436   1.082   9.296
  127DIO    C19 7082   5.568   1.038   9.339
  127DIO     F6 7083   5.631   0.948   9.261
  127DIO    C20 7084   5.227   1.230   9.328
  127DIO     O3 7085   5.157   1.301   9.430
  127DIO    C21 7086   5.114   1.217   9.537
  127DIO    C22 7087   5.025   1.105   9.484
  127DIO    C23 7088   5.105   1.031   9.377
  127DIO     O4 7089   5.150   1.121   9.276
  127DIO    C24 7090   4.892   1.156   9.424
  127DIO    C25 7091   4.801   1.235   9.519
  127DIO    C26 7092   4.763   1.159   9.645
  127DIO     H1 7093   6.483   1.104   9.350
  127DIO     H2 7094   6.442   1.088   9.790
  127DIO     H3 7095   6.265   1.286   9.693
  127DIO     H4 7096   6.014   1.303   9.667
  127DIO     H5 7097   6.014   0.962   9.394
  127DIO     H6 7098   5.405   1.360   9.504
  127DIO     H7 7099   5.394   1.037   9.208
  127DIO     H8 7100   5.237   1.301   9.245
  127DIO     H9 7101   5.200   1.176   9.589
  127DIO    H10 7102   5.061   1.280   9.609
  127DIO    H11 7103   5.002   1.035   9.566
  127DIO    H12 7104   5.044   0.954   9.329
  127DIO    H13 7105   5.192   0.980   9.422
  127DIO    H14 7106   4.912   1.219   9.336
  127DIO    H15 7107   4.835   1.069   9.387
  127DIO    H16 7108   4.849   1.330   9.547
  127DIO    H17 7109   4.709   1.261   9.465
  127DIO    H18 7110   4.719   1.061   9.620
  127DIO    H19 7111   4.849   1.142   9.710
  127DIO    H20 7112   4.689   1.216   9.702
  128DIO     F1 7113   4.070   1.236   4.444
  128DIO     C1 7114   3.993   1.165   4.360
  128DIO     C2 7115   3.849   1.167   4.377
  128DIO     C3 7116   3.760   1.089   4.288
  128DIO     C4 7117   3.825   1.010   4.182
  128DIO     C5 7118   3.970   1.008   4.167
  128DIO     F2 7119   4.025   0.938   4.066
  128DIO     C6 7120   4.053   1.086   4.255
  128DIO     F3 7121   4.187   1.083   4.241
  128DIO     C7 7122   3.614   1.089   4.304
  128DIO     C8 7123   3.536   0.963   4.311
  128DIO     C9 7124   3.392   0.964   4.327
  128DIO    C10 7125   3.319   1.090   4.325
  128DIO    C11 7126   3.392   1.215   4.326
  128DIO    C12 7127   3.536   1.215   4.314
  128DIO     F4 7128   3.601   1.333   4.309
  128DIO     O1 7129   3.187   1.084   4.364
  128DIO    C13 7130   3.092   1.169   4.307
  128DIO     O2 7131   3.092   1.237   4.201
  128DIO    C14 7132   2.963   1.164   4.376
  128DIO    C15 7133   2.897   1.036   4.410
  128DIO     F5 7134   2.960   0.919   4.385
  128DIO    C16 7135   2.766   1.030   4.472
  128DIO    C17 7136   2.690   1.152   4.498
  128DIO    C18 7137   2.759   1.279   4.482
  128DIO    C19 7138   2.891   1.285   4.421
  128DIO     F6 7139   2.953   1.405   4.423
  128DIO    C20 7140   2.550   1.146   4.553
  128DIO     O3 7141   2.480   1.025   4.521
  128DIO    C21 7142   2.436   1.022   4.385
  128DIO    C22 7143   2.347   1.141   4.353
  128DIO    C23 7144   2.428   1.266   4.387
  128DIO     O4 7145   2.472   1.263   4.523
  128DIO    C24 7146   2.215   1.141   4.432
  128DIO    C25 7147   2.124   1.020   4.410
  128DIO    C26 7148   2.086   0.997   4.265
  128DIO     H1 7149   3.806   1.228   4.456
  128DIO     H2 7150   3.765   0.958   4.108
  128DIO     H3 7151   3.588   0.868   4.310
  128DIO     H4 7152   3.337   0.872   4.340
  128DIO     H5 7153   3.337   1.309   4.331
  128DIO     H6 7154   2.728   0.933   4.502
  128DIO     H7 7155   2.716   1.371   4.521
  128DIO     H8 7156   2.559   1.145   4.662
  128DIO     H9 7157   2.523   1.019   4.318
  128DIO    H10 7158   2.384   0.927   4.370
  128DIO    H11 7159   2.325   1.142   4.246
  128DIO    H12 7160   2.367   1.356   4.375
  128DIO    H13 7161   2.514   1.277   4.320
  128DIO    H14 7162   2.235   1.149   4.540
  128DIO    H15 7163   2.158   1.231   4.405
  128DIO    H16 7164   2.171   0.929   4.450
  128DIO    H17 7165   2.032   1.034   4.469
  128DIO    H18 7166   2.042   1.087   4.221
  128DIO    H19 7167   2.172   0.968   4.205
  128DIO    H20 7168   2.012   0.916   4.258
  129DIO     F1 7169   3.709   7.425   6.988
  129DIO     C1 7170   3.631   7.323   7.030
  129DIO     C2 7171   3.487   7.340   7.032
  129DIO     C3 7172   3.399   7.231   7.079
  129DIO     C4 7173   3.464   7.105   7.120
  129DIO     C5 7174   3.608   7.090   7.117
  129DIO     F2 7175   3.664   6.972   7.151
  129DIO     C6 7176   3.692   7.199   7.071
  129DIO     F3 7177   3.826   7.185   7.069
  129DIO     C7 7178   3.252   7.246   7.083
  129DIO     C8 7179   3.175   7.213   7.205
  129DIO     C9 7180   3.030   7.228   7.209
  129DIO    C10 7181   2.958   7.266   7.090
  129DIO    C11 7182   3.030   7.307   6.970
  129DIO    C12 7183   3.174   7.295   6.967
  129DIO     F4 7184   3.239   7.328   6.854
  129DIO     O1 7185   2.826   7.301   7.107
  129DIO    C13 7186   2.731   7.274   7.008
  129DIO     O2 7187   2.730   7.195   6.910
  129DIO    C14 7188   2.602   7.338   7.035
  129DIO    C15 7189   2.536   7.329   7.167
  129DIO     F5 7190   2.598   7.269   7.270
  129DIO    C16 7191   2.405   7.387   7.193
  129DIO    C17 7192   2.329   7.450   7.085
  129DIO    C18 7193   2.398   7.475   6.959
  129DIO    C19 7194   2.529   7.419   6.934
  129DIO     F6 7195   2.592   7.459   6.821
  129DIO    C20 7196   2.188   7.500   7.108
  129DIO     O3 7197   2.119   7.431   7.212
  129DIO    C21 7198   2.075   7.302   7.173
  129DIO    C22 7199   1.986   7.309   7.049
  129DIO    C23 7200   2.067   7.381   6.941
  129DIO     O4 7201   2.111   7.508   6.988
  129DIO    C24 7202   1.853   7.384   7.075
  129DIO    C25 7203   1.763   7.325   7.183
  129DIO    C26 7204   1.724   7.179   7.158
  129DIO     H1 7205   3.445   7.434   6.999
  129DIO     H2 7206   3.403   7.018   7.146
  129DIO     H3 7207   3.227   7.182   7.295
  129DIO     H4 7208   2.975   7.211   7.301
  129DIO     H5 7209   2.976   7.340   6.883
  129DIO     H6 7210   2.367   7.384   7.294
  129DIO     H7 7211   2.355   7.541   6.885
  129DIO     H8 7212   2.198   7.603   7.143
  129DIO     H9 7213   2.162   7.237   7.154
  129DIO    H10 7214   2.022   7.257   7.258
  129DIO    H11 7215   1.964   7.208   7.015
  129DIO    H12 7216   2.006   7.397   6.852
  129DIO    H13 7217   2.153   7.321   6.910
  129DIO    H14 7218   1.873   7.489   7.101
  129DIO    H15 7219   1.797   7.386   6.980
  129DIO    H16 7220   1.810   7.334   7.281
  129DIO    H17 7221   1.671   7.385   7.188
  129DIO    H18 7222   1.680   7.166   7.059
  129DIO    H19 7223   1.811   7.113   7.167
  129DIO    H20 7224   1.651   7.147   7.233
  130DIO     F1 7225   5.130   6.299   7.172
  130DIO     C1 7226   5.052   6.359   7.080
  130DIO     C2 7227   4.908   6.343   7.087
  130DIO     C3 7228   4.819   6.406   6.987
  130DIO     C4 7229   4.885   6.485   6.880
  130DIO     C5 7230   5.029   6.499   6.875
  130DIO     F2 7231   5.085   6.576   6.779
  130DIO     C6 7232   5.113   6.436   6.974
  130DIO     F3 7233   5.247   6.449   6.968
  130DIO     C7 7234   4.673   6.391   6.992
  130DIO     C8 7235   4.596   6.348   6.873
  130DIO     C9 7236   4.451   6.333   6.878
  130DIO    C10 7237   4.379   6.371   6.998
  130DIO    C11 7238   4.451   6.406   7.119
  130DIO    C12 7239   4.595   6.418   7.114
  130DIO     F4 7240   4.660   6.456   7.226
  130DIO     O1 7241   4.246   6.332   7.004
  130DIO    C13 7242   4.152   6.411   7.069
  130DIO     O2 7243   4.151   6.532   7.104
  130DIO    C14 7244   4.023   6.343   7.084
  130DIO    C15 7245   3.956   6.275   6.971
  130DIO     F5 7246   4.019   6.265   6.852
  130DIO    C16 7247   3.826   6.213   6.983
  130DIO    C17 7248   3.750   6.222   7.107
  130DIO    C18 7249   3.819   6.274   7.225
  130DIO    C19 7250   3.950   6.335   7.213
  130DIO     F6 7251   4.013   6.367   7.328
  130DIO    C20 7252   3.609   6.169   7.117
  130DIO     O3 7253   3.539   6.165   6.992
  130DIO    C21 7254   3.496   6.294   6.950
  130DIO    C22 7255   3.407   6.359   7.056
  130DIO    C23 7256   3.488   6.362   7.185
  130DIO     O4 7257   3.532   6.231   7.220
  130DIO    C24 7258   3.274   6.283   7.078
  130DIO    C25 7259   3.183   6.269   6.955
  130DIO    C26 7260   3.145   6.402   6.892
  130DIO     H1 7261   4.866   6.285   7.168
  130DIO     H2 7262   4.824   6.541   6.810
  130DIO     H3 7263   4.647   6.322   6.782
  130DIO     H4 7264   4.396   6.294   6.794
  130DIO     H5 7265   4.397   6.428   7.210
  130DIO     H6 7266   3.788   6.157   6.898
  130DIO     H7 7267   3.776   6.264   7.324
  130DIO     H8 7268   3.619   6.064   7.148
  130DIO     H9 7269   3.582   6.357   6.928
  130DIO    H10 7270   3.443   6.282   6.855
  130DIO    H11 7271   3.384   6.462   7.026
  130DIO    H12 7272   3.427   6.399   7.268
  130DIO    H13 7273   3.574   6.429   7.176
  130DIO    H14 7274   3.294   6.182   7.116
  130DIO    H15 7275   3.218   6.335   7.156
  130DIO    H16 7276   3.231   6.205   6.880
  130DIO    H17 7277   3.092   6.217   6.986
  130DIO    H18 7278   3.101   6.470   6.966
  130DIO    H19 7279   3.232   6.451   6.847
  130DIO    H20 7280   3.071   6.386   6.813
  131DIO     F1 7281   8.113   5.016   8.927
  131DIO     C1 7282   8.035   5.126   8.923
  131DIO     C2 7283   7.891   5.112   8.915
  131DIO     C3 7284   7.803   5.230   8.908
  131DIO     C4 7285   7.868   5.363   8.913
  131DIO     C5 7286   8.012   5.375   8.921
  131DIO     F2 7287   8.068   5.497   8.930
  131DIO     C6 7288   8.096   5.257   8.927
  131DIO     F3 7289   8.230   5.270   8.933
  131DIO     C7 7290   7.656   5.217   8.899
  131DIO     C8 7291   7.579   5.290   8.796
  131DIO     C9 7292   7.434   5.278   8.787
  131DIO    C10 7293   7.362   5.200   8.886
  131DIO    C11 7294   7.434   5.121   8.984
  131DIO    C12 7295   7.578   5.132   8.991
  131DIO     F4 7296   7.643   5.061   9.086
  131DIO     O1 7297   7.230   5.174   8.858
  131DIO    C13 7298   7.135   5.165   8.960
  131DIO     O2 7299   7.134   5.206   9.079
  131DIO    C14 7300   7.006   5.114   8.913
  131DIO    C15 7301   6.940   5.168   8.792
  131DIO     F5 7302   7.002   5.260   8.716
  131DIO    C16 7303   6.809   5.123   8.748
  131DIO    C17 7304   6.733   5.026   8.827
  131DIO    C18 7305   6.802   4.959   8.937
  131DIO    C19 7306   6.933   5.003   8.980
  131DIO     F6 7307   6.996   4.927   9.072
  131DIO    C20 7308   6.592   4.987   8.789
  131DIO     O3 7309   6.523   5.088   8.714
  131DIO    C21 7310   6.479   5.196   8.796
  131DIO    C22 7311   6.390   5.146   8.909
  131DIO    C23 7312   6.471   5.042   8.986
  131DIO     O4 7313   6.515   4.938   8.899
  131DIO    C24 7314   6.257   5.085   8.860
  131DIO    C25 7315   6.167   5.178   8.779
  131DIO    C26 7316   6.128   5.305   8.851
  131DIO     H1 7317   7.849   5.012   8.914
  131DIO     H2 7318   7.807   5.452   8.919
  131DIO     H3 7319   7.631   5.350   8.722
  131DIO     H4 7320   7.379   5.324   8.707
  131DIO     H5 7321   7.380   5.060   9.054
  131DIO     H6 7322   6.771   5.160   8.654
  131DIO     H7 7323   6.759   4.872   8.984
  131DIO     H8 7324   6.602   4.902   8.720
  131DIO     H9 7325   6.566   5.250   8.835
  131DIO    H10 7326   6.426   5.267   8.731
  131DIO    H11 7327   6.368   5.230   8.977
  131DIO    H12 7328   6.410   4.995   9.064
  131DIO    H13 7329   6.557   5.088   9.036
  131DIO    H14 7330   6.277   4.995   8.799
  131DIO    H15 7331   6.201   5.050   8.947
  131DIO    H16 7332   6.214   5.203   8.683
  131DIO    H17 7333   6.075   5.123   8.753
  131DIO    H18 7334   6.084   5.283   8.949
  131DIO    H19 7335   6.215   5.371   8.866
  131DIO    H20 7336   6.055   5.361   8.793
  132DIO     F1 7337   8.205   2.325   7.464
  132DIO     C1 7338   8.128   2.419   7.407
  132DIO     C2 7339   7.984   2.402   7.408
  132DIO     C3 7340   7.895   2.502   7.344
  132DIO     C4 7341   7.960   2.620   7.283
  132DIO     C5 7342   8.105   2.635   7.284
  132DIO     F2 7343   8.160   2.746   7.231
  132DIO     C6 7344   8.188   2.535   7.346
  132DIO     F3 7345   8.322   2.549   7.346
  132DIO     C7 7346   7.749   2.486   7.342
  132DIO     C8 7347   7.671   2.500   7.217
  132DIO     C9 7348   7.527   2.485   7.215
  132DIO    C10 7349   7.454   2.466   7.339
  132DIO    C11 7350   7.527   2.445   7.463
  132DIO    C12 7351   7.671   2.457   7.464
  132DIO     F4 7352   7.736   2.443   7.582
  132DIO     O1 7353   7.322   2.428   7.327
  132DIO    C13 7354   7.227   2.471   7.420
  132DIO     O2 7355   7.227   2.565   7.504
  132DIO    C14 7356   7.098   2.403   7.405
  132DIO    C15 7357   7.032   2.391   7.273
  132DIO     F5 7358   7.095   2.434   7.162
  132DIO    C16 7359   6.901   2.330   7.257
  132DIO    C17 7360   6.825   2.285   7.373
  132DIO    C18 7361   6.894   2.280   7.501
  132DIO    C19 7362   7.026   2.340   7.517
  132DIO     F6 7363   7.088   2.319   7.635
  132DIO    C20 7364   6.685   2.232   7.358
  132DIO     O3 7365   6.615   2.283   7.244
  132DIO    C21 7366   6.571   2.417   7.262
  132DIO    C22 7367   6.482   2.430   7.386
  132DIO    C23 7368   6.563   2.376   7.504
  132DIO     O4 7369   6.607   2.243   7.478
  132DIO    C24 7370   6.350   2.352   7.373
  132DIO    C25 7371   6.259   2.393   7.256
  132DIO    C26 7372   6.221   2.540   7.257
  132DIO     H1 7373   7.941   2.315   7.455
  132DIO     H2 7374   7.900   2.701   7.244
  132DIO     H3 7375   7.723   2.516   7.123
  132DIO     H4 7376   7.472   2.486   7.122
  132DIO     H5 7377   7.472   2.425   7.555
  132DIO     H6 7378   6.863   2.316   7.156
  132DIO     H7 7379   6.851   2.228   7.585
  132DIO     H8 7380   6.694   2.124   7.340
  132DIO     H9 7381   6.658   2.484   7.270
  132DIO    H10 7382   6.519   2.448   7.171
  132DIO    H11 7383   6.460   2.536   7.404
  132DIO    H12 7384   6.502   2.374   7.594
  132DIO    H13 7385   6.649   2.441   7.525
  132DIO    H14 7386   6.370   2.244   7.364
  132DIO    H15 7387   6.293   2.365   7.466
  132DIO    H16 7388   6.306   2.368   7.161
  132DIO    H17 7389   6.167   2.333   7.261
  132DIO    H18 7390   6.177   2.569   7.353
  132DIO    H19 7391   6.307   2.604   7.238
  132DIO    H20 7392   6.147   2.560   7.179
  133DIO     F1 7393   3.146   5.143   3.696
  133DIO     C1 7394   3.069   5.228   3.626
  133DIO     C2 7395   2.925   5.211   3.629
  133DIO     C3 7396   2.836   5.301   3.551
  133DIO     C4 7397   2.901   5.409   3.473
  133DIO     C5 7398   3.046   5.423   3.472
  133DIO     F2 7399   3.101   5.525   3.404
  133DIO     C6 7400   3.129   5.334   3.549
  133DIO     F3 7401   3.263   5.348   3.546
  133DIO     C7 7402   2.689   5.285   3.552
  133DIO     C8 7403   2.612   5.279   3.426
  133DIO     C9 7404   2.468   5.264   3.426
  133DIO    C10 7405   2.395   5.264   3.552
  133DIO    C11 7406   2.468   5.262   3.678
  133DIO    C12 7407   2.612   5.274   3.677
  133DIO     F4 7408   2.677   5.277   3.795
  133DIO     O1 7409   2.263   5.225   3.546
  133DIO    C13 7410   2.168   5.281   3.631
  133DIO     O2 7411   2.167   5.386   3.701
  133DIO    C14 7412   2.039   5.212   3.626
  133DIO    C15 7413   1.973   5.180   3.497
  133DIO     F5 7414   2.036   5.207   3.381
  133DIO    C16 7415   1.842   5.118   3.490
  133DIO    C17 7416   1.766   5.090   3.612
  133DIO    C18 7417   1.835   5.104   3.739
  133DIO    C19 7418   1.967   5.165   3.746
  133DIO     F6 7419   2.029   5.162   3.866
  133DIO    C20 7420   1.626   5.036   3.605
  133DIO     O3 7421   1.556   5.069   3.485
  133DIO    C21 7422   1.512   5.205   3.483
  133DIO    C22 7423   1.423   5.235   3.603
  133DIO    C23 7424   1.504   5.200   3.728
  133DIO     O4 7425   1.548   5.064   3.722
  133DIO    C24 7426   1.291   5.156   3.602
  133DIO    C25 7427   1.200   5.180   3.481
  133DIO    C26 7428   1.161   5.326   3.460
  133DIO     H1 7429   2.882   5.132   3.689
  133DIO     H2 7430   2.841   5.483   3.423
  133DIO     H3 7431   2.664   5.282   3.331
  133DIO     H4 7432   2.413   5.252   3.334
  133DIO     H5 7433   2.413   5.256   3.771
  133DIO     H6 7434   1.804   5.089   3.393
  133DIO     H7 7435   1.792   5.065   3.831
  133DIO     H8 7436   1.635   4.926   3.603
  133DIO     H9 7437   1.599   5.272   3.481
  133DIO    H10 7438   1.459   5.222   3.389
  133DIO    H11 7439   1.401   5.342   3.605
  133DIO    H12 7440   1.443   5.211   3.818
  133DIO    H13 7441   1.590   5.267   3.739
  133DIO    H14 7442   1.310   5.049   3.609
  133DIO    H15 7443   1.234   5.183   3.692
  133DIO    H16 7444   1.247   5.141   3.390
  133DIO    H17 7445   1.108   5.121   3.494
  133DIO    H18 7446   1.118   5.368   3.551
  133DIO    H19 7447   1.248   5.386   3.431
  133DIO    H20 7448   1.088   5.334   3.379
  134DIO     F1 7449   1.676   6.875  10.343
  134DIO     C1 7450   1.599   6.916  10.241
  134DIO     C2 7451   1.455   6.903  10.251
  134DIO     C3 7452   1.366   6.945  10.141
  134DIO     C4 7453   1.431   7.002  10.021
  134DIO     C5 7454   1.576   7.015  10.013
  134DIO     F2 7455   1.631   7.072   9.904
  134DIO     C6 7456   1.659   6.972  10.123
  134DIO     F3 7457   1.793   6.983  10.114
  134DIO     C7 7458   1.219   6.931  10.149
  134DIO     C8 7459   1.142   6.866  10.040
  134DIO     C9 7460   0.998   6.853  10.048
  134DIO    C10 7461   0.925   6.912  10.158
  134DIO    C11 7462   0.998   6.970  10.270
  134DIO    C12 7463   1.142   6.981  10.264
  134DIO     F4 7464   1.207   7.039  10.366
  134DIO     O1 7465   0.793   6.876  10.172
  134DIO    C13 7466   0.698   6.965  10.220
  134DIO     O2 7467   0.697   7.091  10.232
  134DIO    C14 7468   0.569   6.902  10.249
  134DIO    C15 7469   0.503   6.813  10.150
  134DIO     F5 7470   0.566   6.781  10.035
  134DIO    C16 7471   0.372   6.754  10.174
  134DIO    C17 7472   0.296   6.788  10.294
  134DIO    C18 7473   0.365   6.861  10.399
  134DIO    C19 7474   0.497   6.918  10.377
  134DIO     F6 7475   0.559   6.972  10.483
  134DIO    C20 7476   0.156   6.737  10.314
  134DIO     O3 7477   0.086   6.709  10.192
  134DIO    C21 7478   0.042   6.828  10.126
  134DIO    C22 7479  -0.047   6.911  10.217
  134DIO    C23 7480   0.034   6.939  10.344
  134DIO     O4 7481   0.078   6.818  10.404
  134DIO    C24 7482  -0.179   6.841  10.254
  134DIO    C25 7483  -0.270   6.805  10.136
  134DIO    C26 7484  -0.309   6.923  10.048
  134DIO     H1 7485   1.412   6.861  10.342
  134DIO     H2 7486   1.371   7.044   9.941
  134DIO     H3 7487   1.194   6.823   9.955
  134DIO     H4 7488   0.943   6.798   9.973
  134DIO     H5 7489   0.943   7.009  10.355
  134DIO     H6 7490   0.334   6.683  10.102
  134DIO     H7 7491   0.322   6.869  10.498
  134DIO     H8 7492   0.165   6.640  10.364
  134DIO     H9 7493   0.129   6.886  10.093
  134DIO    H10 7494  -0.011   6.798  10.035
  134DIO    H11 7495  -0.069   7.007  10.168
  134DIO    H12 7496  -0.027   6.992  10.418
  134DIO    H13 7497   0.120   7.004  10.322
  134DIO    H14 7498  -0.160   6.750  10.311
  134DIO    H15 7499  -0.236   6.907  10.321
  134DIO    H16 7500  -0.223   6.727  10.074
  134DIO    H17 7501  -0.362   6.760  10.176
  134DIO    H18 7502  -0.352   7.004  10.108
  134DIO    H19 7503  -0.222   6.963   9.995
  134DIO    H20 7504  -0.382   6.892   9.974
  135DIO     F1 7505   2.522   0.074  -0.879
  135DIO     C1 7506   2.444   0.001  -0.797
  135DIO     C2 7507   2.300   0.017  -0.802
  135DIO     C3 7508   2.212  -0.060  -0.712
  135DIO     C4 7509   2.277  -0.155  -0.618
  135DIO     C5 7510   2.421  -0.169  -0.615
  135DIO     F2 7511   2.477  -0.259  -0.532
  135DIO     C6 7512   2.505  -0.092  -0.704
  135DIO     F3 7513   2.639  -0.106  -0.699
  135DIO     C7 7514   2.065  -0.044  -0.715
  135DIO     C8 7515   1.988  -0.020  -0.591
  135DIO     C9 7516   1.843  -0.005  -0.593
  135DIO    C10 7517   1.771  -0.024  -0.718
  135DIO    C11 7518   1.843  -0.040  -0.842
  135DIO    C12 7519   1.987  -0.052  -0.840
  135DIO     F4 7520   2.052  -0.073  -0.956
  135DIO     O1 7521   1.639   0.015  -0.718
  135DIO    C13 7522   1.544  -0.053  -0.794
  135DIO     O2 7523   1.543  -0.167  -0.847
  135DIO    C14 7524   1.415   0.017  -0.799
  135DIO    C15 7525   1.349   0.067  -0.677
  135DIO     F5 7526   1.411   0.059  -0.557
  135DIO    C16 7527   1.218   0.130  -0.679
  135DIO    C17 7528   1.142   0.139  -0.803
  135DIO    C18 7529   1.211   0.106  -0.927
  135DIO    C19 7530   1.342   0.044  -0.925
  135DIO     F6 7531   1.405   0.030  -1.044
  135DIO    C20 7532   1.001   0.194  -0.805
  135DIO     O3 7533   0.932   0.179  -0.681
  135DIO    C21 7534   0.888   0.045  -0.659
  135DIO    C22 7535   0.799  -0.003  -0.773
  135DIO    C23 7536   0.880   0.013  -0.901
  135DIO     O4 7537   0.924   0.148  -0.916
  135DIO    C24 7538   0.666   0.075  -0.783
  135DIO    C25 7539   0.576   0.070  -0.660
  135DIO    C26 7540   0.537  -0.071  -0.617
  135DIO     H1 7541   2.258   0.086  -0.873
  135DIO     H2 7542   2.216  -0.221  -0.557
  135DIO     H3 7543   2.040  -0.008  -0.496
  135DIO     H4 7544   1.788   0.021  -0.504
  135DIO     H5 7545   1.789  -0.049  -0.935
  135DIO     H6 7546   1.180   0.173  -0.587
  135DIO     H7 7547   1.168   0.131  -1.023
  135DIO     H8 7548   1.011   0.302  -0.819
  135DIO     H9 7549   0.975  -0.021  -0.647
  135DIO    H10 7550   0.835   0.043  -0.563
  135DIO    H11 7551   0.777  -0.109  -0.759
  135DIO    H12 7552   0.819  -0.011  -0.989
  135DIO    H13 7553   0.966  -0.054  -0.902
  135DIO    H14 7554   0.686   0.181  -0.806
  135DIO    H15 7555   0.610   0.036  -0.869
  135DIO    H16 7556   0.623   0.122  -0.576
  135DIO    H17 7557   0.484   0.126  -0.682
  135DIO    H18 7558   0.493  -0.126  -0.701
  135DIO    H19 7559   0.624  -0.126  -0.580
  135DIO    H20 7560   0.464  -0.067  -0.537
  136DIO     F1 7561   8.605   7.662   4.050
  136DIO     C1 7562   8.528   7.722   4.142
  136DIO     C2 7563   8.383   7.721   4.125
  136DIO     C3 7564   8.295   7.789   4.222
  136DIO     C4 7565   8.360   7.854   4.338
  136DIO     C5 7566   8.504   7.854   4.353
  136DIO     F2 7567   8.560   7.911   4.461
  136DIO     C6 7568   8.588   7.788   4.255
  136DIO     F3 7569   8.722   7.789   4.270
  136DIO     C7 7570   8.148   7.790   4.206
  136DIO     C8 7571   8.071   7.916   4.215
  136DIO     C9 7572   7.926   7.917   4.200
  136DIO    C10 7573   7.854   7.792   4.186
  136DIO    C11 7574   7.926   7.668   4.169
  136DIO    C12 7575   8.070   7.667   4.182
  136DIO     F4 7576   8.135   7.549   4.172
  136DIO     O1 7577   7.722   7.803   4.148
  136DIO    C13 7578   7.627   7.711   4.194
  136DIO     O2 7579   7.626   7.631   4.291
  136DIO    C14 7580   7.498   7.724   4.126
  136DIO    C15 7581   7.432   7.856   4.108
  136DIO     F5 7582   7.494   7.969   4.147
  136DIO    C16 7583   7.301   7.870   4.047
  136DIO    C17 7584   7.225   7.752   4.006
  136DIO    C18 7585   7.294   7.624   4.006
  136DIO    C19 7586   7.426   7.610   4.066
  136DIO     F6 7587   7.488   7.491   4.050
  136DIO    C20 7588   7.084   7.764   3.953
  136DIO     O3 7589   7.015   7.880   4.000
  136DIO    C21 7590   6.971   7.867   4.134
  136DIO    C22 7591   6.882   7.745   4.151
  136DIO    C23 7592   6.963   7.624   4.102
  136DIO     O4 7593   7.007   7.645   3.968
  136DIO    C24 7594   6.749   7.754   4.073
  136DIO    C25 7595   6.659   7.872   4.110
  136DIO    C26 7596   6.620   7.877   4.257
  136DIO     H1 7597   8.341   7.671   4.039
  136DIO     H2 7598   8.300   7.896   4.418
  136DIO     H3 7599   8.123   8.010   4.228
  136DIO     H4 7600   7.871   8.010   4.198
  136DIO     H5 7601   7.872   7.575   4.153
  136DIO     H6 7602   7.263   7.970   4.030
  136DIO     H7 7603   7.251   7.537   3.957
  136DIO     H8 7604   7.094   7.779   3.844
  136DIO     H9 7605   7.058   7.862   4.201
  136DIO    H10 7606   6.918   7.959   4.161
  136DIO    H11 7607   6.860   7.730   4.258
  136DIO    H12 7608   6.902   7.534   4.104
  136DIO    H13 7609   7.049   7.606   4.168
  136DIO    H14 7610   6.769   7.760   3.965
  136DIO    H15 7611   6.693   7.662   4.089
  136DIO    H16 7612   6.706   7.967   4.082
  136DIO    H17 7613   6.567   7.865   4.050
  136DIO    H18 7614   6.576   7.782   4.289
  136DIO    H19 7615   6.707   7.898   4.320
  136DIO    H20 7616   6.547   7.956   4.274
  137DIO     F1 7617   8.450  -0.784   7.439
  137DIO     C1 7618   8.372  -0.699   7.369
  137DIO     C2 7619   8.228  -0.716   7.372
  137DIO     C3 7620   8.139  -0.626   7.295
  137DIO     C4 7621   8.205  -0.517   7.218
  137DIO     C5 7622   8.349  -0.503   7.217
  137DIO     F2 7623   8.405  -0.400   7.149
  137DIO     C6 7624   8.433  -0.593   7.293
  137DIO     F3 7625   8.567  -0.579   7.290
  137DIO     C7 7626   7.993  -0.642   7.295
  137DIO     C8 7627   7.916  -0.646   7.169
  137DIO     C9 7628   7.771  -0.661   7.169
  137DIO    C10 7629   7.699  -0.663   7.295
  137DIO    C11 7630   7.771  -0.666   7.421
  137DIO    C12 7631   7.915  -0.654   7.420
  137DIO     F4 7632   7.980  -0.652   7.538
  137DIO     O1 7633   7.566  -0.701   7.289
  137DIO    C13 7634   7.472  -0.646   7.375
  137DIO     O2 7635   7.471  -0.542   7.445
  137DIO    C14 7636   7.343  -0.715   7.369
  137DIO    C15 7637   7.276  -0.746   7.240
  137DIO     F5 7638   7.339  -0.719   7.124
  137DIO    C16 7639   7.146  -0.808   7.232
  137DIO    C17 7640   7.070  -0.837   7.353
  137DIO    C18 7641   7.139  -0.824   7.481
  137DIO    C19 7642   7.270  -0.763   7.489
  137DIO     F6 7643   7.333  -0.767   7.608
  137DIO    C20 7644   6.929  -0.892   7.347
  137DIO     O3 7645   6.859  -0.857   7.227
  137DIO    C21 7646   6.816  -0.721   7.226
  137DIO    C22 7647   6.727  -0.692   7.346
  137DIO    C23 7648   6.808  -0.728   7.470
  137DIO     O4 7649   6.852  -0.864   7.464
  137DIO    C24 7650   6.594  -0.771   7.344
  137DIO    C25 7651   6.503  -0.746   7.223
  137DIO    C26 7652   6.465  -0.600   7.204
  137DIO     H1 7653   8.186  -0.796   7.431
  137DIO     H2 7654   8.144  -0.443   7.168
  137DIO     H3 7655   7.967  -0.643   7.074
  137DIO     H4 7656   7.716  -0.673   7.077
  137DIO     H5 7657   7.717  -0.673   7.514
  137DIO     H6 7658   7.108  -0.836   7.135
  137DIO     H7 7659   7.096  -0.864   7.572
  137DIO     H8 7660   6.939  -1.001   7.344
  137DIO     H9 7661   6.902  -0.654   7.225
  137DIO    H10 7662   6.763  -0.704   7.132
  137DIO    H11 7663   6.704  -0.585   7.349
  137DIO    H12 7664   6.747  -0.718   7.561
  137DIO    H13 7665   6.894  -0.662   7.482
  137DIO    H14 7666   6.614  -0.878   7.350
  137DIO    H15 7667   6.538  -0.745   7.435
  137DIO    H16 7668   6.551  -0.784   7.132
  137DIO    H17 7669   6.412  -0.805   7.236
  137DIO    H18 7670   6.421  -0.558   7.295
  137DIO    H19 7671   6.552  -0.539   7.176
  137DIO    H20 7672   6.391  -0.591   7.123
  138DIO     F1 7673   5.946  -0.846   3.626
  138DIO     C1 7674   5.868  -0.744   3.667
  138DIO     C2 7675   5.724  -0.755   3.654
  138DIO     C3 7676   5.635  -0.644   3.696
  138DIO     C4 7677   5.701  -0.524   3.754
  138DIO     C5 7678   5.845  -0.517   3.767
  138DIO     F2 7679   5.900  -0.408   3.824
  138DIO     C6 7680   5.929  -0.626   3.724
  138DIO     F3 7681   6.062  -0.617   3.735
  138DIO     C7 7682   5.489  -0.652   3.682
  138DIO     C8 7683   5.412  -0.543   3.618
  138DIO     C9 7684   5.267  -0.551   3.605
  138DIO    C10 7685   5.194  -0.662   3.664
  138DIO    C11 7686   5.267  -0.774   3.721
  138DIO    C12 7687   5.411  -0.767   3.732
  138DIO     F4 7688   5.476  -0.870   3.790
  138DIO     O1 7689   5.062  -0.675   3.627
  138DIO    C13 7690   4.968  -0.724   3.717
  138DIO     O2 7691   4.967  -0.735   3.842
  138DIO    C14 7692   4.839  -0.752   3.653
  138DIO    C15 7693   4.772  -0.654   3.564
  138DIO     F5 7694   4.835  -0.538   3.533
  138DIO    C16 7695   4.641  -0.677   3.506
  138DIO    C17 7696   4.566  -0.797   3.539
  138DIO    C18 7697   4.634  -0.903   3.612
  138DIO    C19 7698   4.766  -0.880   3.669
  138DIO     F6 7699   4.829  -0.987   3.723
  138DIO    C20 7700   4.425  -0.817   3.488
  138DIO     O3 7701   4.355  -0.695   3.461
  138DIO    C21 7702   4.312  -0.629   3.579
  138DIO    C22 7703   4.223  -0.721   3.663
  138DIO    C23 7704   4.303  -0.847   3.690
  138DIO     O4 7705   4.348  -0.907   3.569
  138DIO    C24 7706   4.090  -0.757   3.593
  138DIO    C25 7707   3.999  -0.639   3.556
  138DIO    C26 7708   3.961  -0.552   3.675
  138DIO     H1 7709   5.681  -0.845   3.612
  138DIO     H2 7710   5.640  -0.445   3.796
  138DIO     H3 7711   5.463  -0.459   3.575
  138DIO     H4 7712   5.212  -0.476   3.550
  138DIO     H5 7713   5.212  -0.859   3.760
  138DIO     H6 7714   4.603  -0.604   3.435
  138DIO     H7 7715   4.592  -1.002   3.620
  138DIO     H8 7716   4.435  -0.867   3.391
  138DIO     H9 7717   4.398  -0.596   3.637
  138DIO    H10 7718   4.259  -0.538   3.549
  138DIO    H11 7719   4.200  -0.672   3.758
  138DIO    H12 7720   4.242  -0.921   3.743
  138DIO    H13 7721   4.390  -0.826   3.755
  138DIO    H14 7722   4.110  -0.814   3.501
  138DIO    H15 7723   4.033  -0.824   3.659
  138DIO    H16 7724   4.047  -0.577   3.479
  138DIO    H17 7725   3.907  -0.679   3.511
  138DIO    H18 7726   3.917  -0.611   3.755
  138DIO    H19 7727   4.047  -0.498   3.715
  138DIO    H20 7728   3.887  -0.477   3.644
  139DIO     F1 7729   4.174   0.819  10.388
  139DIO     C1 7730   4.096   0.822  10.278
  139DIO     C2 7731   3.952   0.813  10.293
  139DIO     C3 7732   3.863   0.813  10.174
  139DIO     C4 7733   3.929   0.826  10.042
  139DIO     C5 7734   4.073   0.834  10.030
  139DIO     F2 7735   4.129   0.850   9.909
  139DIO     C6 7736   4.157   0.833  10.148
  139DIO     F3 7737   4.291   0.840  10.136
  139DIO     C7 7738   3.717   0.803  10.187
  139DIO     C8 7739   3.640   0.705  10.108
  139DIO     C9 7740   3.495   0.695  10.120
  139DIO    C10 7741   3.423   0.790  10.202
  139DIO    C11 7742   3.495   0.883  10.287
  139DIO    C12 7743   3.639   0.891  10.277
  139DIO     F4 7744   3.704   0.981  10.353
  139DIO     O1 7745   3.290   0.760  10.228
  139DIO    C13 7746   3.196   0.861  10.242
  139DIO     O2 7747   3.195   0.982  10.208
  139DIO    C14 7748   3.067   0.811  10.291
  139DIO    C15 7749   3.001   0.694  10.230
  139DIO     F5 7750   3.063   0.623  10.133
  139DIO    C16 7751   2.870   0.647  10.272
  139DIO    C17 7752   2.794   0.720  10.373
  139DIO    C18 7753   2.863   0.826  10.446
  139DIO    C19 7754   2.994   0.871  10.405
  139DIO     F6 7755   3.057   0.960  10.486
  139DIO    C20 7756   2.653   0.680  10.410
  139DIO     O3 7757   2.584   0.611  10.305
  139DIO    C21 7758   2.540   0.699  10.202
  139DIO    C22 7759   2.451   0.809  10.258
  139DIO    C23 7760   2.532   0.880  10.367
  139DIO     O4 7761   2.576   0.787  10.465
  139DIO    C24 7762   2.318   0.757  10.316
  139DIO    C25 7763   2.228   0.681  10.219
  139DIO    C26 7764   2.189   0.761  10.096
  139DIO     H1 7765   3.910   0.806  10.392
  139DIO     H2 7766   3.868   0.836   9.953
  139DIO     H3 7767   3.691   0.634  10.044
  139DIO     H4 7768   3.440   0.617  10.068
  139DIO     H5 7769   3.441   0.949  10.353
  139DIO     H6 7770   2.832   0.555  10.230
  139DIO     H7 7771   2.820   0.869  10.536
  139DIO     H8 7772   2.663   0.606  10.491
  139DIO     H9 7773   2.627   0.741  10.150
  139DIO    H10 7774   2.487   0.639  10.127
  139DIO    H11 7775   2.428   0.882  10.179
  139DIO    H12 7776   2.471   0.955  10.417
  139DIO    H13 7777   2.618   0.932  10.324
  139DIO    H14 7778   2.338   0.691  10.402
  139DIO    H15 7779   2.262   0.842  10.356
  139DIO    H16 7780   2.275   0.587  10.188
  139DIO    H17 7781   2.136   0.653  10.272
  139DIO    H18 7782   2.145   0.857  10.123
  139DIO    H19 7783   2.276   0.779  10.031
  139DIO    H20 7784   2.115   0.705  10.037
  140DIO     F1 7785   8.606   0.986   8.319
  140DIO     C1 7786   8.528   0.901   8.389
  140DIO     C2 7787   8.384   0.918   8.386
  140DIO     C3 7788   8.295   0.828   8.464
  140DIO     C4 7789   8.361   0.720   8.541
  140DIO     C5 7790   8.505   0.705   8.542
  140DIO     F2 7791   8.561   0.603   8.611
  140DIO     C6 7792   8.589   0.795   8.466
  140DIO     F3 7793   8.723   0.781   8.469
  140DIO     C7 7794   8.149   0.844   8.463
  140DIO     C8 7795   8.072   0.849   8.590
  140DIO     C9 7796   7.927   0.864   8.589
  140DIO    C10 7797   7.855   0.865   8.463
  140DIO    C11 7798   7.927   0.868   8.338
  140DIO    C12 7799   8.071   0.855   8.338
  140DIO     F4 7800   8.136   0.852   8.220
  140DIO     O1 7801   7.722   0.903   8.470
  140DIO    C13 7802   7.628   0.848   8.384
  140DIO     O2 7803   7.627   0.743   8.314
  140DIO    C14 7804   7.499   0.917   8.389
  140DIO    C15 7805   7.432   0.948   8.518
  140DIO     F5 7806   7.495   0.922   8.634
  140DIO    C16 7807   7.302   1.011   8.526
  140DIO    C17 7808   7.226   1.039   8.404
  140DIO    C18 7809   7.295   1.025   8.276
  140DIO    C19 7810   7.426   0.964   8.269
  140DIO     F6 7811   7.489   0.967   8.149
  140DIO    C20 7812   7.085   1.093   8.410
  140DIO     O3 7813   7.015   1.059   8.531
  140DIO    C21 7814   6.972   0.924   8.532
  140DIO    C22 7815   6.883   0.894   8.412
  140DIO    C23 7816   6.964   0.930   8.288
  140DIO     O4 7817   7.008   1.065   8.293
  140DIO    C24 7818   6.750   0.973   8.414
  140DIO    C25 7819   6.659   0.949   8.535
  140DIO    C26 7820   6.621   0.803   8.555
  140DIO     H1 7821   8.342   0.997   8.327
  140DIO     H2 7822   8.300   0.645   8.592
  140DIO     H3 7823   8.123   0.846   8.685
  140DIO     H4 7824   7.872   0.876   8.681
  140DIO     H5 7825   7.873   0.874   8.244
  140DIO     H6 7826   7.264   1.039   8.623
  140DIO     H7 7827   7.252   1.065   8.185
  140DIO     H8 7828   7.095   1.203   8.413
  140DIO     H9 7829   7.058   0.857   8.534
  140DIO    H10 7830   6.919   0.907   8.627
  140DIO    H11 7831   6.860   0.786   8.410
  140DIO    H12 7832   6.903   0.918   8.197
  140DIO    H13 7833   7.050   0.863   8.276
  140DIO    H14 7834   6.770   1.080   8.407
  140DIO    H15 7835   6.694   0.947   8.323
  140DIO    H16 7836   6.707   0.987   8.626
  140DIO    H17 7837   6.568   1.007   8.521
  140DIO    H18 7838   6.577   0.761   8.464
  140DIO    H19 7839   6.708   0.742   8.583
  140DIO    H20 7840   6.547   0.794   8.636
  141DIO     F1 7841   8.591   3.912   2.829
  141DIO     C1 7842   8.514   3.836   2.749
  141DIO     C2 7843   8.370   3.840   2.766
  141DIO     C3 7844   8.281   3.757   2.681
  141DIO     C4 7845   8.346   3.673   2.578
  141DIO     C5 7846   8.491   3.671   2.564
  141DIO     F2 7847   8.546   3.596   2.466
  141DIO     C6 7848   8.574   3.752   2.648
  141DIO     F3 7849   8.708   3.749   2.635
  141DIO     C7 7850   8.135   3.758   2.697
  141DIO     C8 7851   8.057   3.633   2.710
  141DIO     C9 7852   7.913   3.634   2.725
  141DIO    C10 7853   7.840   3.760   2.718
  141DIO    C11 7854   7.913   3.885   2.713
  141DIO    C12 7855   8.057   3.884   2.700
  141DIO     F4 7856   8.122   4.002   2.690
  141DIO     O1 7857   7.708   3.756   2.757
  141DIO    C13 7858   7.613   3.838   2.696
  141DIO     O2 7859   7.613   3.901   2.587
  141DIO    C14 7860   7.484   3.837   2.765
  141DIO    C15 7861   7.418   3.711   2.805
  141DIO     F5 7862   7.481   3.593   2.786
  141DIO    C16 7863   7.287   3.707   2.868
  141DIO    C17 7864   7.211   3.830   2.888
  141DIO    C18 7865   7.280   3.957   2.866
  141DIO    C19 7866   7.412   3.960   2.804
  141DIO     F6 7867   7.474   4.080   2.800
  141DIO    C20 7868   7.071   3.827   2.943
  141DIO     O3 7869   7.001   3.705   2.916
  141DIO    C21 7870   6.957   3.695   2.781
  141DIO    C22 7871   6.868   3.813   2.743
  141DIO    C23 7872   6.949   3.939   2.771
  141DIO     O4 7873   6.993   3.942   2.907
  141DIO    C24 7874   6.736   3.816   2.822
  141DIO    C25 7875   6.645   3.694   2.806
  141DIO    C26 7876   6.607   3.664   2.662
  141DIO     H1 7877   8.327   3.905   2.841
  141DIO     H2 7878   8.286   3.617   2.507
  141DIO     H3 7879   8.109   3.538   2.714
  141DIO     H4 7880   7.858   3.543   2.743
  141DIO     H5 7881   7.858   3.979   2.712
  141DIO     H6 7882   7.249   3.612   2.902
  141DIO     H7 7883   7.237   4.050   2.900
  141DIO     H8 7884   7.080   3.832   3.052
  141DIO     H9 7885   7.044   3.689   2.715
  141DIO    H10 7886   6.905   3.600   2.770
  141DIO    H11 7887   6.846   3.808   2.636
  141DIO    H12 7888   6.888   4.029   2.754
  141DIO    H13 7889   7.035   3.947   2.704
  141DIO    H14 7890   6.756   3.830   2.929
  141DIO    H15 7891   6.679   3.905   2.791
  141DIO    H16 7892   6.692   3.605   2.850
  141DIO    H17 7893   6.553   3.711   2.864
  141DIO    H18 7894   6.563   3.752   2.614
  141DIO    H19 7895   6.693   3.632   2.603
  141DIO    H20 7896   6.533   3.583   2.659
  142DIO     F1 7897   4.565   8.720   5.714
  142DIO     C1 7898   4.487   8.632   5.780
  142DIO     C2 7899   4.343   8.648   5.778
  142DIO     C3 7900   4.254   8.555   5.851
  142DIO     C4 7901   4.320   8.444   5.924
  142DIO     C5 7902   4.464   8.429   5.924
  142DIO     F2 7903   4.520   8.324   5.987
  142DIO     C6 7904   4.548   8.522   5.852
  142DIO     F3 7905   4.682   8.508   5.854
  142DIO     C7 7906   4.108   8.571   5.852
  142DIO     C8 7907   4.031   8.570   5.978
  142DIO     C9 7908   3.886   8.586   5.978
  142DIO    C10 7909   3.814   8.592   5.853
  142DIO    C11 7910   3.886   8.601   5.727
  142DIO    C12 7911   4.030   8.588   5.727
  142DIO     F4 7912   4.095   8.591   5.609
  142DIO     O1 7913   3.681   8.630   5.861
  142DIO    C13 7914   3.587   8.579   5.772
  142DIO     O2 7915   3.586   8.477   5.698
  142DIO    C14 7916   3.458   8.648   5.781
  142DIO    C15 7917   3.391   8.673   5.911
  142DIO     F5 7918   3.454   8.641   6.026
  142DIO    C16 7919   3.261   8.735   5.922
  142DIO    C17 7920   3.185   8.769   5.802
  142DIO    C18 7921   3.254   8.761   5.673
  142DIO    C19 7922   3.385   8.700   5.663
  142DIO     F6 7923   3.448   8.709   5.544
  142DIO    C20 7924   3.044   8.823   5.810
  142DIO     O3 7925   2.974   8.783   5.929
  142DIO    C21 7926   2.931   8.648   5.924
  142DIO    C22 7927   2.842   8.623   5.803
  142DIO    C23 7928   2.923   8.665   5.680
  142DIO     O4 7929   2.967   8.800   5.692
  142DIO    C24 7930   2.709   8.702   5.808
  142DIO    C25 7931   2.618   8.672   5.928
  142DIO    C26 7932   2.580   8.526   5.941
  142DIO     H1 7933   4.301   8.731   5.722
  142DIO     H2 7934   4.259   8.367   5.971
  142DIO     H3 7935   4.082   8.563   6.073
  142DIO     H4 7936   3.831   8.593   6.071
  142DIO     H5 7937   3.832   8.611   5.634
  142DIO     H6 7938   3.223   8.759   6.020
  142DIO     H7 7939   3.211   8.805   5.584
  142DIO     H8 7940   3.054   8.932   5.818
  142DIO     H9 7941   3.017   8.581   5.923
  142DIO    H10 7942   2.878   8.626   6.018
  142DIO    H11 7943   2.819   8.516   5.795
  142DIO    H12 7944   2.862   8.658   5.590
  142DIO    H13 7945   3.009   8.599   5.665
  142DIO    H14 7946   2.729   8.810   5.807
  142DIO    H15 7947   2.653   8.680   5.716
  142DIO    H16 7948   2.666   8.707   6.021
  142DIO    H17 7949   2.527   8.732   5.917
  142DIO    H18 7950   2.536   8.488   5.849
  142DIO    H19 7951   2.667   8.464   5.967
  142DIO    H20 7952   2.506   8.514   6.021
  143DIO     F1 7953   2.655   7.891   2.590
  143DIO     C1 7954   2.577   7.785   2.560
  143DIO     C2 7955   2.433   7.797   2.572
  143DIO     C3 7956   2.344   7.682   2.543
  143DIO     C4 7957   2.410   7.557   2.498
  143DIO     C5 7958   2.554   7.548   2.486
  143DIO     F2 7959   2.609   7.434   2.441
  143DIO     C6 7960   2.638   7.662   2.517
  143DIO     F3 7961   2.771   7.652   2.507
  143DIO     C7 7962   2.198   7.692   2.555
  143DIO     C8 7963   2.121   7.591   2.631
  143DIO     C9 7964   1.976   7.600   2.644
  143DIO    C10 7965   1.903   7.704   2.573
  143DIO    C11 7966   1.976   7.809   2.503
  143DIO    C12 7967   2.120   7.801   2.493
  143DIO     F4 7968   2.185   7.897   2.424
  143DIO     O1 7969   1.771   7.720   2.608
  143DIO    C13 7970   1.677   7.759   2.513
  143DIO     O2 7971   1.676   7.757   2.387
  143DIO    C14 7972   1.548   7.794   2.574
  143DIO    C15 7973   1.481   7.706   2.672
  143DIO     F5 7974   1.544   7.595   2.717
  143DIO    C16 7975   1.350   7.735   2.728
  143DIO    C17 7976   1.275   7.851   2.682
  143DIO    C18 7977   1.343   7.949   2.598
  143DIO    C19 7978   1.475   7.920   2.544
  143DIO     F6 7979   1.538   8.020   2.479
  143DIO    C20 7980   1.134   7.877   2.731
  143DIO     O3 7981   1.064   7.759   2.771
  143DIO    C21 7982   1.021   7.680   2.660
  143DIO    C22 7983   0.932   7.762   2.567
  143DIO    C23 7984   1.012   7.885   2.526
  143DIO     O4 7985   1.057   7.957   2.641
  143DIO    C24 7986   0.799   7.806   2.633
  143DIO    C25 7987   0.708   7.692   2.682
  143DIO    C26 7988   0.670   7.593   2.574
  143DIO     H1 7989   2.390   7.891   2.604
  143DIO     H2 7990   2.349   7.473   2.465
  143DIO     H3 7991   2.172   7.511   2.683
  143DIO     H4 7992   1.921   7.531   2.706
  143DIO     H5 7993   1.921   7.889   2.455
  143DIO     H6 7994   1.312   7.671   2.807
  143DIO     H7 7995   1.301   8.046   2.579
  143DIO     H8 7996   1.144   7.937   2.822
  143DIO     H9 7997   1.107   7.641   2.606
  143DIO    H10 7998   0.968   7.593   2.700
  143DIO    H11 7999   0.909   7.703   2.478
  143DIO    H12 8000   0.951   7.953   2.466
  143DIO    H13 8001   1.099   7.857   2.464
  143DIO    H14 8002   0.819   7.872   2.718
  143DIO    H15 8003   0.742   7.865   2.560
  143DIO    H16 8004   0.756   7.639   2.766
  143DIO    H17 8005   0.616   7.737   2.723
  143DIO    H18 8006   0.626   7.644   2.487
  143DIO    H19 8007   0.756   7.535   2.540
  143DIO    H20 8008   0.596   7.522   2.613
  144DIO     F1 8009   7.000   0.614   2.657
  144DIO     C1 8010   6.923   0.638   2.764
  144DIO     C2 8011   6.779   0.643   2.748
  144DIO     C3 8012   6.690   0.672   2.863
  144DIO     C4 8013   6.755   0.693   2.994
  144DIO     C5 8014   6.900   0.688   3.008
  144DIO     F2 8015   6.955   0.703   3.130
  144DIO     C6 8016   6.983   0.660   2.894
  144DIO     F3 8017   7.117   0.656   2.907
  144DIO     C7 8018   6.543   0.679   2.848
  144DIO     C8 8019   6.466   0.794   2.900
  144DIO     C9 8020   6.322   0.801   2.887
  144DIO    C10 8021   6.249   0.689   2.830
  144DIO    C11 8022   6.322   0.577   2.771
  144DIO    C12 8023   6.466   0.572   2.783
  144DIO     F4 8024   6.531   0.465   2.732
  144DIO     O1 8025   6.117   0.711   2.798
  144DIO    C13 8026   6.022   0.610   2.810
  144DIO     O2 8027   6.021   0.500   2.872
  144DIO    C14 8028   5.893   0.646   2.750
  144DIO    C15 8029   5.827   0.775   2.780
  144DIO     F5 8030   5.890   0.867   2.856
  144DIO    C16 8031   5.696   0.809   2.727
  144DIO    C17 8032   5.620   0.713   2.648
  144DIO    C18 8033   5.689   0.593   2.603
  144DIO    C19 8034   5.821   0.559   2.654
  144DIO     F6 8035   5.883   0.454   2.598
  144DIO    C20 8036   5.480   0.743   2.602
  144DIO     O3 8037   5.410   0.836   2.686
  144DIO    C21 8038   5.366   0.777   2.808
  144DIO    C22 8039   5.277   0.656   2.781
  144DIO    C23 8040   5.358   0.560   2.693
  144DIO     O4 8041   5.402   0.626   2.575
  144DIO    C24 8042   5.145   0.692   2.711
  144DIO    C25 8043   5.054   0.790   2.787
  144DIO    C26 8044   5.015   0.743   2.926
  144DIO     H1 8045   6.736   0.626   2.650
  144DIO     H2 8046   6.695   0.705   3.083
  144DIO     H3 8047   6.518   0.878   2.945
  144DIO     H4 8048   6.267   0.889   2.917
  144DIO     H5 8049   6.267   0.497   2.724
  144DIO     H6 8050   5.658   0.909   2.746
  144DIO     H7 8051   5.646   0.529   2.527
  144DIO     H8 8052   5.489   0.795   2.505
  144DIO     H9 8053   5.453   0.748   2.868
  144DIO    H10 8054   5.313   0.853   2.865
  144DIO    H11 8055   5.255   0.605   2.876
  144DIO    H12 8056   5.297   0.475   2.663
  144DIO    H13 8057   5.444   0.520   2.748
  144DIO    H14 8058   5.164   0.735   2.612
  144DIO    H15 8059   5.088   0.600   2.694
  144DIO    H16 8060   5.101   0.889   2.793
  144DIO    H17 8061   4.962   0.804   2.728
  144DIO    H18 8062   4.972   0.643   2.923
  144DIO    H19 8063   5.102   0.741   2.993
  144DIO    H20 8064   4.942   0.811   2.970
  145DIO     F1 8065  10.875   3.192   2.598
  145DIO     C1 8066  10.798   3.100   2.658
  145DIO     C2 8067  10.654   3.117   2.657
  145DIO     C3 8068  10.565   3.019   2.724
  145DIO     C4 8069  10.630   2.903   2.788
  145DIO     C5 8070  10.775   2.888   2.787
  145DIO     F2 8071  10.830   2.779   2.843
  145DIO     C6 8072  10.858   2.986   2.722
  145DIO     F3 8073  10.992   2.972   2.723
  145DIO     C7 8074  10.418   3.035   2.725
  145DIO     C8 8075  10.341   3.025   2.851
  145DIO     C9 8076  10.197   3.041   2.852
  145DIO    C10 8077  10.124   3.056   2.727
  145DIO    C11 8078  10.196   3.073   2.603
  145DIO    C12 8079  10.341   3.060   2.602
  145DIO     F4 8080  10.405   3.072   2.484
  145DIO     O1 8081   9.992   3.093   2.738
  145DIO    C13 8082   9.897   3.048   2.646
  145DIO     O2 8083   9.896   2.952   2.565
  145DIO    C14 8084   9.768   3.116   2.660
  145DIO    C15 8085   9.702   3.132   2.791
  145DIO     F5 8086   9.764   3.092   2.904
  145DIO    C16 8087   9.571   3.193   2.806
  145DIO    C17 8088   9.495   3.235   2.689
  145DIO    C18 8089   9.564   3.236   2.560
  145DIO    C19 8090   9.696   3.177   2.546
  145DIO     F6 8091   9.758   3.194   2.427
  145DIO    C20 8092   9.355   3.289   2.701
  145DIO     O3 8093   9.285   3.241   2.817
  145DIO    C21 8094   9.241   3.106   2.803
  145DIO    C22 8095   9.152   3.090   2.680
  145DIO    C23 8096   9.233   3.140   2.560
  145DIO     O4 8097   9.277   3.274   2.582
  145DIO    C24 8098   9.019   3.168   2.690
  145DIO    C25 8099   8.929   3.131   2.808
  145DIO    C26 8100   8.890   2.984   2.811
  145DIO     H1 8101  10.611   3.203   2.607
  145DIO     H2 8102  10.570   2.823   2.830
  145DIO     H3 8103  10.393   3.012   2.945
  145DIO     H4 8104  10.141   3.042   2.945
  145DIO     H5 8105  10.142   3.090   2.511
  145DIO     H6 8106   9.533   3.210   2.906
  145DIO     H7 8107   9.521   3.286   2.474
  145DIO     H8 8108   9.364   3.397   2.716
  145DIO     H9 8109   9.328   3.040   2.797
  145DIO    H10 8110   9.188   3.078   2.894
  145DIO    H11 8111   9.130   2.984   2.665
  145DIO    H12 8112   9.172   3.140   2.469
  145DIO    H13 8113   9.319   3.075   2.541
  145DIO    H14 8114   9.039   3.276   2.697
  145DIO    H15 8115   8.963   3.153   2.598
  145DIO    H16 8116   8.976   3.158   2.903
  145DIO    H17 8117   8.837   3.191   2.801
  145DIO    H18 8118   8.846   2.952   2.716
  145DIO    H19 8119   8.977   2.920   2.832
  145DIO    H20 8120   8.817   2.966   2.890
  146DIO     F1 8121   9.516   3.031   3.730
  146DIO     C1 8122   9.439   2.934   3.782
  146DIO     C2 8123   9.295   2.951   3.783
  146DIO     C3 8124   9.206   2.848   3.841
  146DIO     C4 8125   9.271   2.727   3.896
  146DIO     C5 8126   9.416   2.712   3.894
  146DIO     F2 8127   9.471   2.599   3.941
  146DIO     C6 8128   9.499   2.815   3.837
  146DIO     F3 8129   9.633   2.801   3.836
  146DIO     C7 8130   9.060   2.864   3.843
  146DIO     C8 8131   8.982   2.844   3.968
  146DIO     C9 8132   8.838   2.859   3.971
  146DIO    C10 8133   8.765   2.884   3.848
  146DIO    C11 8134   8.838   2.912   3.725
  146DIO    C12 8135   8.982   2.899   3.723
  146DIO     F4 8136   9.047   2.920   3.607
  146DIO     O1 8137   8.633   2.921   3.861
  146DIO    C13 8138   8.538   2.883   3.766
  146DIO     O2 8139   8.538   2.794   3.677
  146DIO    C14 8140   8.409   2.950   3.785
  146DIO    C15 8141   8.343   2.955   3.918
  146DIO     F5 8142   8.406   2.906   4.027
  146DIO    C16 8143   8.212   3.015   3.937
  146DIO    C17 8144   8.136   3.067   3.824
  146DIO    C18 8145   8.205   3.078   3.696
  146DIO    C19 8146   8.337   3.019   3.677
  146DIO     F6 8147   8.399   3.046   3.560
  146DIO    C20 8148   7.996   3.119   3.841
  146DIO     O3 8149   7.926   3.062   3.952
  146DIO    C21 8150   7.882   2.928   3.927
  146DIO    C22 8151   7.793   2.922   3.803
  146DIO    C23 8152   7.874   2.982   3.688
  146DIO     O4 8153   7.918   3.114   3.720
  146DIO    C24 8154   7.661   3.000   3.820
  146DIO    C25 8155   7.570   2.952   3.934
  146DIO    C26 8156   7.532   2.805   3.925
  146DIO     H1 8157   9.252   3.041   3.740
  146DIO     H2 8158   9.211   2.644   3.930
  146DIO     H3 8159   9.034   2.823   4.061
  146DIO     H4 8160   8.783   2.853   4.064
  146DIO     H5 8161   8.783   2.936   3.635
  146DIO     H6 8162   8.174   3.024   4.038
  146DIO     H7 8163   8.162   3.135   3.614
  146DIO     H8 8164   8.005   3.225   3.864
  146DIO     H9 8165   7.969   2.863   3.915
  146DIO    H10 8166   7.830   2.893   4.016
  146DIO    H11 8167   7.771   2.818   3.780
  146DIO    H12 8168   7.813   2.989   3.597
  146DIO    H13 8169   7.960   2.919   3.664
  146DIO    H14 8170   7.681   3.107   3.835
  146DIO    H15 8171   7.604   2.992   3.726
  146DIO    H16 8172   7.617   2.972   4.031
  146DIO    H17 8173   7.478   3.013   3.932
  146DIO    H18 8174   7.488   2.782   3.828
  146DIO    H19 8175   7.618   2.740   3.941
  146DIO    H20 8176   7.458   2.781   4.003
  147DIO     F1 8177   7.396   4.064   4.714
  147DIO     C1 8178   7.319   3.985   4.789
  147DIO     C2 8179   7.175   4.001   4.786
  147DIO     C3 8180   7.086   3.917   4.869
  147DIO     C4 8181   7.151   3.815   4.954
  147DIO     C5 8182   7.296   3.801   4.956
  147DIO     F2 8183   7.351   3.704   5.032
  147DIO     C6 8184   7.379   3.885   4.874
  147DIO     F3 8185   7.513   3.871   4.878
  147DIO     C7 8186   6.939   3.933   4.868
  147DIO     C8 8187   6.862   3.947   4.993
  147DIO     C9 8188   6.718   3.962   4.992
  147DIO    C10 8189   6.645   3.954   4.866
  147DIO    C11 8190   6.717   3.948   4.740
  147DIO    C12 8191   6.862   3.935   4.742
  147DIO     F4 8192   6.926   3.924   4.624
  147DIO     O1 8193   6.513   3.993   4.870
  147DIO    C13 8194   6.418   3.931   4.788
  147DIO     O2 8195   6.417   3.822   4.726
  147DIO    C14 8196   6.289   4.001   4.789
  147DIO    C15 8197   6.223   4.041   4.915
  147DIO     F5 8198   6.285   4.023   5.033
  147DIO    C16 8199   6.092   4.104   4.918
  147DIO    C17 8200   6.016   4.123   4.795
  147DIO    C18 8201   6.085   4.100   4.668
  147DIO    C19 8202   6.217   4.039   4.665
  147DIO     F6 8203   6.279   4.034   4.546
  147DIO    C20 8204   5.876   4.178   4.797
  147DIO     O3 8205   5.806   4.153   4.920
  147DIO    C21 8206   5.762   4.018   4.931
  147DIO    C22 8207   5.673   3.979   4.813
  147DIO    C23 8208   5.754   4.006   4.686
  147DIO     O4 8209   5.798   4.142   4.682
  147DIO    C24 8210   5.540   4.058   4.809
  147DIO    C25 8211   5.450   4.043   4.931
  147DIO    C26 8212   5.411   3.899   4.962
  147DIO     H1 8213   7.132   4.076   4.720
  147DIO     H2 8214   7.091   3.744   5.010
  147DIO     H3 8215   6.914   3.951   5.088
  147DIO     H4 8216   6.662   3.981   5.083
  147DIO     H5 8217   6.663   3.947   4.647
  147DIO     H6 8218   6.054   4.139   5.013
  147DIO     H7 8219   6.042   4.134   4.574
  147DIO     H8 8220   5.885   4.287   4.792
  147DIO     H9 8221   5.849   3.951   4.937
  147DIO    H10 8222   5.709   4.007   5.026
  147DIO    H11 8223   5.651   3.872   4.818
  147DIO    H12 8224   5.693   3.989   4.597
  147DIO    H13 8225   5.840   3.939   4.679
  147DIO    H14 8226   5.560   4.165   4.795
  147DIO    H15 8227   5.484   4.026   4.720
  147DIO    H16 8228   5.497   4.087   5.020
  147DIO    H17 8229   5.358   4.100   4.914
  147DIO    H18 8230   5.367   3.850   4.875
  147DIO    H19 8231   5.498   3.840   4.995
  147DIO    H20 8232   5.338   3.896   5.043
  148DIO     F1 8233   1.581   4.207   7.696
  148DIO     C1 8234   1.503   4.316   7.678
  148DIO     C2 8235   1.359   4.300   7.672
  148DIO     C3 8236   1.270   4.416   7.649
  148DIO     C4 8237   1.336   4.548   7.636
  148DIO     C5 8238   1.480   4.561   7.642
  148DIO     F2 8239   1.535   4.684   7.634
  148DIO     C6 8240   1.564   4.446   7.663
  148DIO     F3 8241   1.697   4.459   7.668
  148DIO     C7 8242   1.124   4.402   7.642
  148DIO     C8 8243   1.047   4.460   7.530
  148DIO     C9 8244   0.902   4.447   7.522
  148DIO    C10 8245   0.829   4.384   7.631
  148DIO    C11 8246   0.902   4.319   7.739
  148DIO    C12 8247   1.046   4.330   7.744
  148DIO     F4 8248   1.111   4.273   7.848
  148DIO     O1 8249   0.697   4.354   7.607
  148DIO    C13 8250   0.603   4.359   7.709
  148DIO     O2 8251   0.602   4.415   7.821
  148DIO    C14 8252   0.473   4.302   7.669
  148DIO    C15 8253   0.407   4.339   7.542
  148DIO     F5 8254   0.470   4.420   7.454
  148DIO    C16 8255   0.276   4.288   7.505
  148DIO    C17 8256   0.201   4.203   7.596
  148DIO    C18 8257   0.269   4.152   7.714
  148DIO    C19 8258   0.401   4.201   7.750
  148DIO     F6 8259   0.463   4.138   7.852
  148DIO    C20 8260   0.060   4.159   7.563
  148DIO     O3 8261  -0.010   4.249   7.476
  148DIO    C21 8262  -0.054   4.367   7.542
  148DIO    C22 8263  -0.142   4.333   7.661
  148DIO    C23 8264  -0.062   4.240   7.751
  148DIO     O4 8265  -0.017   4.126   7.679
  148DIO    C24 8266  -0.275   4.266   7.620
  148DIO    C25 8267  -0.366   4.347   7.527
  148DIO    C26 8268  -0.404   4.483   7.582
  148DIO     H1 8269   1.316   4.201   7.684
  148DIO     H2 8270   1.275   4.638   7.629
  148DIO     H3 8271   1.098   4.510   7.448
  148DIO     H4 8272   0.847   4.483   7.436
  148DIO     H5 8273   0.847   4.267   7.817
  148DIO     H6 8274   0.238   4.312   7.406
  148DIO     H7 8275   0.226   4.072   7.773
  148DIO     H8 8276   0.070   4.066   7.506
  148DIO     H9 8277   0.033   4.426   7.574
  148DIO    H10 8278  -0.106   4.429   7.469
  148DIO    H11 8279  -0.165   4.425   7.717
  148DIO    H12 8280  -0.123   4.205   7.835
  148DIO    H13 8281   0.024   4.292   7.795
  148DIO    H14 8282  -0.255   4.169   7.572
  148DIO    H15 8283  -0.332   4.243   7.712
  148DIO    H16 8284  -0.319   4.359   7.429
  148DIO    H17 8285  -0.458   4.289   7.510
  148DIO    H18 8286  -0.448   4.475   7.682
  148DIO    H19 8287  -0.318   4.550   7.588
  148DIO    H20 8288  -0.478   4.531   7.517
  149DIO     F1 8289   4.646   4.920   7.557
  149DIO     C1 8290   4.568   5.011   7.495
  149DIO     C2 8291   4.424   4.994   7.496
  149DIO     C3 8292   4.335   5.091   7.428
  149DIO     C4 8293   4.401   5.206   7.362
  149DIO     C5 8294   4.545   5.221   7.362
  149DIO     F2 8295   4.600   5.329   7.304
  149DIO     C6 8296   4.629   5.124   7.429
  149DIO     F3 8297   4.762   5.138   7.428
  149DIO     C7 8298   4.189   5.075   7.427
  149DIO     C8 8299   4.112   5.082   7.301
  149DIO     C9 8300   3.967   5.067   7.300
  149DIO    C10 8301   3.894   5.054   7.425
  149DIO    C11 8302   3.967   5.039   7.550
  149DIO    C12 8303   4.111   5.052   7.550
  149DIO     F4 8304   4.176   5.042   7.668
  149DIO     O1 8305   3.762   5.016   7.415
  149DIO    C13 8306   3.668   5.063   7.506
  149DIO     O2 8307   3.667   5.161   7.586
  149DIO    C14 8308   3.538   4.995   7.493
  149DIO    C15 8309   3.472   4.977   7.362
  149DIO     F5 8310   3.535   5.015   7.249
  149DIO    C16 8311   3.341   4.915   7.349
  149DIO    C17 8312   3.266   4.875   7.467
  149DIO    C18 8313   3.334   4.876   7.595
  149DIO    C19 8314   3.466   4.936   7.608
  149DIO     F6 8315   3.528   4.921   7.727
  149DIO    C20 8316   3.125   4.821   7.455
  149DIO     O3 8317   3.055   4.867   7.339
  149DIO    C21 8318   3.011   5.002   7.350
  149DIO    C22 8319   2.923   5.020   7.473
  149DIO    C23 8320   3.003   4.972   7.593
  149DIO     O4 8321   3.048   4.838   7.574
  149DIO    C24 8322   2.790   4.942   7.464
  149DIO    C25 8323   2.699   4.978   7.345
  149DIO    C26 8324   2.661   5.125   7.340
  149DIO     H1 8325   4.381   4.909   7.548
  149DIO     H2 8326   4.340   5.285   7.319
  149DIO     H3 8327   4.163   5.094   7.207
  149DIO     H4 8328   3.912   5.064   7.207
  149DIO     H5 8329   3.912   5.024   7.642
  149DIO     H6 8330   3.303   4.897   7.249
  149DIO     H7 8331   3.291   4.828   7.682
  149DIO     H8 8332   3.135   4.713   7.442
  149DIO     H9 8333   3.098   5.069   7.355
  149DIO    H10 8334   2.959   5.029   7.258
  149DIO    H11 8335   2.900   5.127   7.486
  149DIO    H12 8336   2.942   4.974   7.684
  149DIO    H13 8337   3.089   5.038   7.611
  149DIO    H14 8338   2.810   4.834   7.459
  149DIO    H15 8339   2.733   4.959   7.556
  149DIO    H16 8340   2.746   4.949   7.251
  149DIO    H17 8341   2.607   4.918   7.353
  149DIO    H18 8342   2.617   5.158   7.434
  149DIO    H19 8343   2.747   5.188   7.318
  149DIO    H20 8344   2.587   5.141   7.260
  150DIO     F1 8345   6.604   0.629   0.028
  150DIO     C1 8346   6.526   0.546   0.101
  150DIO     C2 8347   6.382   0.563   0.097
  150DIO     C3 8348   6.293   0.476   0.178
  150DIO     C4 8349   6.359   0.370   0.259
  150DIO     C5 8350   6.503   0.356   0.260
  150DIO     F2 8351   6.559   0.256   0.332
  150DIO     C6 8352   6.587   0.443   0.181
  150DIO     F3 8353   6.721   0.429   0.184
  150DIO     C7 8354   6.147   0.492   0.177
  150DIO     C8 8355   6.070   0.501   0.303
  150DIO     C9 8356   5.925   0.516   0.302
  150DIO    C10 8357   5.853   0.512   0.176
  150DIO    C11 8358   5.925   0.511   0.050
  150DIO    C12 8359   6.069   0.499   0.051
  150DIO     F4 8360   6.134   0.492  -0.067
  150DIO     O1 8361   5.720   0.551   0.181
  150DIO    C13 8362   5.626   0.493   0.097
  150DIO     O2 8363   5.625   0.386   0.031
  150DIO    C14 8364   5.497   0.562   0.100
  150DIO    C15 8365   5.430   0.598   0.228
  150DIO     F5 8366   5.493   0.575   0.345
  150DIO    C16 8367   5.300   0.660   0.233
  150DIO    C17 8368   5.224   0.684   0.111
  150DIO    C18 8369   5.293   0.666  -0.016
  150DIO    C19 8370   5.424   0.605  -0.021
  150DIO     F6 8371   5.487   0.605  -0.141
  150DIO    C20 8372   5.083   0.739   0.116
  150DIO     O3 8373   5.013   0.709   0.237
  150DIO    C21 8374   4.970   0.574   0.243
  150DIO    C22 8375   4.881   0.539   0.124
  150DIO    C23 8376   4.962   0.571  -0.002
  150DIO     O4 8377   5.006   0.707  -0.000
  150DIO    C24 8378   4.748   0.618   0.123
  150DIO    C25 8379   4.657   0.598   0.245
  150DIO    C26 8380   4.619   0.453   0.270
  150DIO     H1 8381   6.340   0.640   0.035
  150DIO     H2 8382   6.298   0.297   0.311
  150DIO     H3 8383   6.121   0.501   0.398
  150DIO     H4 8384   5.870   0.531   0.393
  150DIO     H5 8385   5.871   0.514  -0.043
  150DIO     H6 8386   5.262   0.692   0.330
  150DIO     H7 8387   5.250   0.703  -0.109
  150DIO     H8 8388   5.093   0.848   0.115
  150DIO     H9 8389   5.056   0.507   0.247
  150DIO    H10 8390   4.917   0.560   0.338
  150DIO    H11 8391   4.858   0.432   0.125
  150DIO    H12 8392   4.901   0.557  -0.092
  150DIO    H13 8393   5.048   0.504  -0.011
  150DIO    H14 8394   4.768   0.726   0.113
  150DIO    H15 8395   4.692   0.590   0.033
  150DIO    H16 8396   4.705   0.640   0.334
  150DIO    H17 8397   4.566   0.657   0.229
  150DIO    H18 8398   4.575   0.408   0.180
  150DIO    H19 8399   4.706   0.394   0.300
  150DIO    H20 8400   4.545   0.448   0.350
  151DIO     F1 8401   3.668  -0.779   6.195
  151DIO     C1 8402   3.590  -0.826   6.294
  151DIO     C2 8403   3.446  -0.812   6.285
  151DIO     C3 8404   3.357  -0.860   6.393
  151DIO     C4 8405   3.423  -0.925   6.509
  151DIO     C5 8406   3.567  -0.937   6.516
  151DIO     F2 8407   3.622  -1.001   6.621
  151DIO     C6 8408   3.651  -0.889   6.409
  151DIO     F3 8409   3.784  -0.900   6.418
  151DIO     C7 8410   3.211  -0.846   6.386
  151DIO     C8 8411   3.134  -0.787   6.498
  151DIO     C9 8412   2.989  -0.774   6.491
  151DIO    C10 8413   2.916  -0.827   6.377
  151DIO    C11 8414   2.989  -0.878   6.262
  151DIO    C12 8415   3.133  -0.889   6.268
  151DIO     F4 8416   3.198  -0.941   6.162
  151DIO     O1 8417   2.784  -0.789   6.366
  151DIO    C13 8418   2.690  -0.876   6.312
  151DIO     O2 8419   2.689  -1.001   6.294
  151DIO    C14 8420   2.561  -0.811   6.288
  151DIO    C15 8421   2.494  -0.728   6.391
  151DIO     F5 8422   2.557  -0.702   6.508
  151DIO    C16 8423   2.363  -0.668   6.371
  151DIO    C17 8424   2.288  -0.694   6.249
  151DIO    C18 8425   2.356  -0.761   6.139
  151DIO    C19 8426   2.488  -0.820   6.159
  151DIO     F6 8427   2.551  -0.868   6.049
  151DIO    C20 8428   2.147  -0.642   6.232
  151DIO     O3 8429   2.077  -0.622   6.355
  151DIO    C21 8430   2.034  -0.744   6.414
  151DIO    C22 8431   1.945  -0.822   6.318
  151DIO    C23 8432   2.025  -0.843   6.190
  151DIO     O4 8433   2.070  -0.718   6.138
  151DIO    C24 8434   1.812  -0.750   6.286
  151DIO    C25 8435   1.721  -0.720   6.406
  151DIO    C26 8436   1.683  -0.844   6.486
  151DIO     H1 8437   3.403  -0.765   6.197
  151DIO     H2 8438   3.362  -0.970   6.587
  151DIO     H3 8439   3.185  -0.749   6.585
  151DIO     H4 8440   2.934  -0.723   6.569
  151DIO     H5 8441   2.934  -0.912   6.175
  151DIO     H6 8442   2.325  -0.601   6.447
  151DIO     H7 8443   2.314  -0.764   6.040
  151DIO     H8 8444   2.157  -0.542   6.187
  151DIO     H9 8445   2.120  -0.804   6.444
  151DIO    H10 8446   1.981  -0.719   6.507
  151DIO    H11 8447   1.922  -0.920   6.362
  151DIO    H12 8448   1.964  -0.891   6.113
  151DIO    H13 8449   2.112  -0.908   6.208
  151DIO    H14 8450   1.832  -0.656   6.234
  151DIO    H15 8451   1.755  -0.812   6.215
  151DIO    H16 8452   1.769  -0.647   6.472
  151DIO    H17 8453   1.629  -0.673   6.369
  151DIO    H18 8454   1.639  -0.921   6.422
  151DIO    H19 8455   1.769  -0.886   6.538
  151DIO    H20 8456   1.609  -0.817   6.563
  152DIO     F1 8457   9.780   4.493   6.314
  152DIO     C1 8458   9.702   4.394   6.362
  152DIO     C2 8459   9.558   4.411   6.363
  152DIO     C3 8460   9.469   4.306   6.418
  152DIO     C4 8461   9.535   4.183   6.468
  152DIO     C5 8462   9.679   4.168   6.466
  152DIO     F2 8463   9.734   4.053   6.509
  152DIO     C6 8464   9.763   4.273   6.413
  152DIO     F3 8465   9.896   4.259   6.412
  152DIO     C7 8466   9.323   4.322   6.421
  152DIO     C8 8467   9.246   4.297   6.545
  152DIO     C9 8468   9.101   4.312   6.548
  152DIO    C10 8469   9.028   4.342   6.426
  152DIO    C11 8470   9.101   4.374   6.304
  152DIO    C12 8471   9.245   4.361   6.302
  152DIO     F4 8472   9.310   4.386   6.187
  152DIO     O1 8473   8.896   4.378   6.441
  152DIO    C13 8474   8.802   4.344   6.345
  152DIO     O2 8475   8.801   4.258   6.252
  152DIO    C14 8476   8.672   4.410   6.366
  152DIO    C15 8477   8.606   4.410   6.499
  152DIO     F5 8478   8.669   4.358   6.606
  152DIO    C16 8479   8.475   4.469   6.520
  152DIO    C17 8480   8.400   4.525   6.409
  152DIO    C18 8481   8.468   4.541   6.281
  152DIO    C19 8482   8.600   4.483   6.260
  152DIO     F6 8483   8.662   4.514   6.144
  152DIO    C20 8484   8.259   4.577   6.428
  152DIO     O3 8485   8.189   4.515   6.537
  152DIO    C21 8486   8.145   4.383   6.507
  152DIO    C22 8487   8.057   4.382   6.383
  152DIO    C23 8488   8.137   4.446   6.270
  152DIO     O4 8489   8.182   4.576   6.307
  152DIO    C24 8490   7.924   4.458   6.403
  152DIO    C25 8491   7.833   4.407   6.515
  152DIO    C26 8492   7.795   4.260   6.501
  152DIO     H1 8493   9.515   4.502   6.324
  152DIO     H2 8494   9.474   4.099   6.500
  152DIO     H3 8495   9.297   4.273   6.637
  152DIO     H4 8496   9.046   4.302   6.641
  152DIO     H5 8497   9.046   4.401   6.215
  152DIO     H6 8498   8.437   4.474   6.622
  152DIO     H7 8499   8.425   4.601   6.202
  152DIO     H8 8500   8.269   4.682   6.455
  152DIO     H9 8501   8.232   4.318   6.493
  152DIO    H10 8502   8.093   4.345   6.595
  152DIO    H11 8503   8.034   4.278   6.356
  152DIO    H12 8504   8.076   4.456   6.180
  152DIO    H13 8505   8.223   4.383   6.243
  152DIO    H14 8506   7.944   4.565   6.421
  152DIO    H15 8507   7.867   4.454   6.309
  152DIO    H16 8508   7.880   4.423   6.613
  152DIO    H17 8509   7.741   4.467   6.515
  152DIO    H18 8510   7.751   4.240   6.403
  152DIO    H19 8511   7.881   4.195   6.514
  152DIO    H20 8512   7.721   4.234   6.577
  153DIO     F1 8513   4.136   5.753   8.128
  153DIO     C1 8514   4.058   5.692   8.220
  153DIO     C2 8515   3.914   5.707   8.212
  153DIO     C3 8516   3.825   5.644   8.312
  153DIO     C4 8517   3.891   5.562   8.417
  153DIO     C5 8518   4.035   5.549   8.422
  153DIO     F2 8519   4.091   5.470   8.517
  153DIO     C6 8520   4.119   5.613   8.324
  153DIO     F3 8521   4.253   5.600   8.330
  153DIO     C7 8522   3.679   5.659   8.307
  153DIO     C8 8523   3.602   5.700   8.427
  153DIO     C9 8524   3.457   5.714   8.422
  153DIO    C10 8525   3.385   5.679   8.301
  153DIO    C11 8526   3.457   5.646   8.180
  153DIO    C12 8527   3.601   5.634   8.184
  153DIO     F4 8528   3.666   5.597   8.071
  153DIO     O1 8529   3.252   5.718   8.296
  153DIO    C13 8530   3.158   5.640   8.230
  153DIO     O2 8531   3.157   5.519   8.193
  153DIO    C14 8532   3.029   5.708   8.215
  153DIO    C15 8533   2.962   5.774   8.330
  153DIO     F5 8534   3.025   5.782   8.449
  153DIO    C16 8535   2.832   5.836   8.319
  153DIO    C17 8536   2.756   5.829   8.195
  153DIO    C18 8537   2.825   5.779   8.076
  153DIO    C19 8538   2.956   5.718   8.087
  153DIO     F6 8539   3.019   5.687   7.971
  153DIO    C20 8540   2.615   5.883   8.185
  153DIO     O3 8541   2.545   5.884   8.310
  153DIO    C21 8542   2.502   5.755   8.350
  153DIO    C22 8543   2.413   5.692   8.244
  153DIO    C23 8544   2.494   5.691   8.114
  153DIO     O4 8545   2.538   5.822   8.081
  153DIO    C24 8546   2.280   5.768   8.223
  153DIO    C25 8547   2.189   5.780   8.346
  153DIO    C26 8548   2.151   5.646   8.407
  153DIO     H1 8549   3.872   5.767   8.132
  153DIO     H2 8550   3.830   5.505   8.487
  153DIO     H3 8551   3.653   5.724   8.518
  153DIO     H4 8552   3.402   5.752   8.507
  153DIO     H5 8553   3.403   5.625   8.089
  153DIO     H6 8554   2.794   5.891   8.404
  153DIO     H7 8555   2.782   5.791   7.977
  153DIO     H8 8556   2.625   5.988   8.156
  153DIO     H9 8557   2.588   5.691   8.371
  153DIO    H10 8558   2.449   5.766   8.446
  153DIO    H11 8559   2.390   5.588   8.272
  153DIO    H12 8560   2.433   5.654   8.031
  153DIO    H13 8561   2.580   5.623   8.122
  153DIO    H14 8562   2.300   5.869   8.186
  153DIO    H15 8563   2.224   5.717   8.143
  153DIO    H16 8564   2.237   5.842   8.422
  153DIO    H17 8565   2.098   5.832   8.316
  153DIO    H18 8566   2.107   5.579   8.332
  153DIO    H19 8567   2.238   5.596   8.451
  153DIO    H20 8568   2.077   5.661   8.486
  154DIO     F1 8569   6.656  10.708   1.924
  154DIO     C1 8570   6.578  10.721   1.814
  154DIO     C2 8571   6.434  10.711   1.828
  154DIO     C3 8572   6.345  10.722   1.710
  154DIO     C4 8573   6.411  10.746   1.579
  154DIO     C5 8574   6.555  10.756   1.568
  154DIO     F2 8575   6.611  10.782   1.448
  154DIO     C6 8576   6.639  10.744   1.685
  154DIO     F3 8577   6.773  10.752   1.674
  154DIO     C7 8578   6.199  10.711   1.721
  154DIO     C8 8579   6.122  10.619   1.634
  154DIO     C9 8580   5.977  10.609   1.645
  154DIO    C10 8581   5.905  10.695   1.736
  154DIO    C11 8582   5.977  10.781   1.828
  154DIO    C12 8583   6.121  10.789   1.819
  154DIO     F4 8584   6.186  10.873   1.903
  154DIO     O1 8585   5.772  10.663   1.758
  154DIO    C13 8586   5.678  10.763   1.781
  154DIO     O2 8587   5.677  10.887   1.759
  154DIO    C14 8588   5.549  10.709   1.825
  154DIO    C15 8589   5.483  10.597   1.754
  154DIO     F5 8590   5.545  10.536   1.652
  154DIO    C16 8591   5.352  10.547   1.792
  154DIO    C17 8592   5.276  10.611   1.899
  154DIO    C18 8593   5.345  10.710   1.982
  154DIO    C19 8594   5.476  10.759   1.944
  154DIO     F6 8595   5.539  10.839   2.033
  154DIO    C20 8596   5.135  10.567   1.932
  154DIO     O3 8597   5.066  10.509   1.822
  154DIO    C21 8598   5.022  10.605   1.727
  154DIO    C22 8599   4.933  10.710   1.793
  154DIO    C23 8600   5.014  10.771   1.907
  154DIO     O4 8601   5.058  10.669   1.997
  154DIO    C24 8602   4.800  10.652   1.846
  154DIO    C25 8603   4.710  10.586   1.742
  154DIO    C26 8604   4.671  10.677   1.627
  154DIO     H1 8605   6.392  10.695   1.926
  154DIO     H2 8606   6.350  10.765   1.491
  154DIO     H3 8607   6.173  10.555   1.563
  154DIO     H4 8608   5.922  10.536   1.586
  154DIO     H5 8609   5.923  10.841   1.900
  154DIO     H6 8610   5.314  10.459   1.741
  154DIO     H7 8611   5.302  10.744   2.075
  154DIO     H8 8612   5.145  10.487   2.006
  154DIO     H9 8613   5.109  10.652   1.679
  154DIO    H10 8614   4.969  10.552   1.647
  154DIO    H11 8615   4.910  10.789   1.720
  154DIO    H12 8616   4.953  10.841   1.965
  154DIO    H13 8617   5.100  10.827   1.869
  154DIO    H14 8618   4.820  10.579   1.925
  154DIO    H15 8619   4.744  10.734   1.893
  154DIO    H16 8620   4.757  10.495   1.703
  154DIO    H17 8621   4.618  10.553   1.793
  154DIO    H18 8622   4.627  10.770   1.663
  154DIO    H19 8623   4.758  10.701   1.564
  154DIO    H20 8624   4.597  10.627   1.563
  155DIO     F1 8625   6.163   7.391  10.605
  155DIO     C1 8626   6.085   7.281  10.598
  155DIO     C2 8627   5.941   7.295  10.608
  155DIO     C3 8628   5.852   7.177  10.603
  155DIO     C4 8629   5.918   7.045  10.587
  155DIO     C5 8630   6.062   7.033  10.577
  155DIO     F2 8631   6.118   6.912  10.558
  155DIO     C6 8632   6.146   7.151  10.583
  155DIO     F3 8633   6.280   7.139  10.575
  155DIO     C7 8634   5.706   7.189  10.614
  155DIO     C8 8635   5.629   7.106  10.710
  155DIO     C9 8636   5.484   7.118  10.720
  155DIO    C10 8637   5.412   7.204  10.628
  155DIO    C11 8638   5.484   7.291  10.538
  155DIO    C12 8639   5.628   7.282  10.530
  155DIO     F4 8640   5.693   7.360  10.442
  155DIO     O1 8641   5.279   7.228  10.659
  155DIO    C13 8642   5.185   7.245  10.558
  155DIO     O2 8643   5.184   7.216  10.436
  155DIO    C14 8644   5.056   7.293  10.610
  155DIO    C15 8645   4.990   7.228  10.725
  155DIO     F5 8646   5.052   7.129  10.792
  155DIO    C16 8647   4.859   7.268  10.773
  155DIO    C17 8648   4.783   7.372  10.703
  155DIO    C18 8649   4.852   7.448  10.600
  155DIO    C19 8650   4.983   7.409  10.553
  155DIO     F6 8651   5.046   7.493  10.468
  155DIO    C20 8652   4.642   7.407  10.745
  155DIO     O3 8653   4.573   7.300  10.810
  155DIO    C21 8654   4.529   7.200  10.719
  155DIO    C22 8655   4.440   7.260  10.610
  155DIO    C23 8656   4.521   7.371  10.544
  155DIO     O4 8657   4.565   7.466  10.640
  155DIO    C24 8658   4.307   7.317  10.665
  155DIO    C25 8659   4.217   7.217  10.738
  155DIO    C26 8660   4.178   7.096  10.653
  155DIO     H1 8661   5.899   7.394  10.618
  155DIO     H2 8662   5.857   6.956  10.573
  155DIO     H3 8663   5.680   7.040  10.778
  155DIO     H4 8664   5.429   7.064  10.796
  155DIO     H5 8665   5.430   7.359  10.474
  155DIO     H6 8666   4.821   7.223  10.864
  155DIO     H7 8667   4.809   7.540  10.561
  155DIO     H8 8668   4.652   7.486  10.821
  155DIO     H9 8669   4.616   7.150  10.675
  155DIO    H10 8670   4.476   7.123  10.776
  155DIO    H11 8671   4.417   7.183  10.536
  155DIO    H12 8672   4.460   7.424  10.470
  155DIO    H13 8673   4.607   7.330  10.490
  155DIO    H14 8674   4.327   7.400  10.734
  155DIO    H15 8675   4.251   7.359  10.581
  155DIO    H16 8676   4.264   7.183  10.830
  155DIO    H17 8677   4.125   7.269  10.768
  155DIO    H18 8678   4.134   7.127  10.558
  155DIO    H19 8679   4.265   7.032  10.633
  155DIO    H20 8680   4.104   7.035  10.707
  156DIO     F1 8681   9.366   1.893   6.127
  156DIO     C1 8682   9.288   2.003   6.128
  156DIO     C2 8683   9.144   1.988   6.119
  156DIO     C3 8684   9.055   2.107   6.117
  156DIO     C4 8685   9.121   2.239   6.127
  156DIO     C5 8686   9.265   2.251   6.135
  156DIO     F2 8687   9.320   2.373   6.148
  156DIO     C6 8688   9.349   2.134   6.136
  156DIO     F3 8689   9.482   2.146   6.143
  156DIO     C7 8690   8.909   2.094   6.107
  156DIO     C8 8691   8.832   2.171   6.007
  156DIO     C9 8692   8.687   2.159   5.997
  156DIO    C10 8693   8.614   2.078   6.094
  156DIO    C11 8694   8.687   1.995   6.188
  156DIO    C12 8695   8.831   2.006   6.196
  156DIO     F4 8696   8.896   1.932   6.288
  156DIO     O1 8697   8.482   2.052   6.064
  156DIO    C13 8698   8.388   2.040   6.166
  156DIO     O2 8699   8.387   2.076   6.286
  156DIO    C14 8700   8.258   1.991   6.117
  156DIO    C15 8701   8.192   2.049   5.998
  156DIO     F5 8702   8.255   2.144   5.926
  156DIO    C16 8703   8.061   2.006   5.952
  156DIO    C17 8704   7.986   1.906   6.028
  156DIO    C18 8705   8.054   1.835   6.135
  156DIO    C19 8706   8.186   1.878   6.179
  156DIO     F6 8707   8.248   1.798   6.269
  156DIO    C20 8708   7.845   1.869   5.988
  156DIO     O3 8709   7.775   1.972   5.917
  156DIO    C21 8710   7.731   2.077   6.003
  156DIO    C22 8711   7.643   2.023   6.114
  156DIO    C23 8712   7.723   1.916   6.187
  156DIO     O4 8713   7.768   1.816   6.096
  156DIO    C24 8714   7.510   1.964   6.063
  156DIO    C25 8715   7.419   2.060   5.985
  156DIO    C26 8716   7.381   2.184   6.063
  156DIO     H1 8717   9.101   1.889   6.114
  156DIO     H2 8718   9.060   2.329   6.136
  156DIO     H3 8719   8.883   2.234   5.936
  156DIO     H4 8720   8.632   2.209   5.919
  156DIO     H5 8721   8.632   1.931   6.256
  156DIO     H6 8722   8.023   2.047   5.860
  156DIO     H7 8723   8.011   1.746   6.179
  156DIO     H8 8724   7.855   1.786   5.916
  156DIO     H9 8725   7.818   2.129   6.045
  156DIO    H10 8726   7.679   2.151   5.941
  156DIO    H11 8727   7.620   2.104   6.185
  156DIO    H12 8728   7.662   1.867   6.263
  156DIO    H13 8729   7.809   1.960   6.239
  156DIO    H14 8730   7.530   1.877   5.999
  156DIO    H15 8731   7.453   1.926   6.149
  156DIO    H16 8732   7.466   2.088   5.891
  156DIO    H17 8733   7.327   2.006   5.958
  156DIO    H18 8734   7.337   2.159   6.160
  156DIO    H19 8735   7.467   2.249   6.080
  156DIO    H20 8736   7.307   2.243   6.006
  157DIO     F1 8737  10.974   7.749   4.229
  157DIO     C1 8738  10.897   7.766   4.121
  157DIO     C2 8739  10.753   7.755   4.134
  157DIO     C3 8740  10.664   7.771   4.017
  157DIO     C4 8741  10.729   7.801   3.887
  157DIO     C5 8742  10.874   7.811   3.877
  157DIO     F2 8743  10.929   7.842   3.758
  157DIO     C6 8744  10.957   7.794   3.993
  157DIO     F3 8745  11.091   7.803   3.982
  157DIO     C7 8746  10.517   7.759   4.027
  157DIO     C8 8747  10.440   7.672   3.936
  157DIO     C9 8748  10.296   7.661   3.947
  157DIO    C10 8749  10.223   7.744   4.041
  157DIO    C11 8750  10.295   7.825   4.137
  157DIO    C12 8751  10.440   7.834   4.128
  157DIO     F4 8752  10.504   7.914   4.215
  157DIO     O1 8753  10.091   7.711   4.062
  157DIO    C13 8754   9.996   7.809   4.089
  157DIO     O2 8755   9.995   7.934   4.072
  157DIO    C14 8756   9.867   7.754   4.131
  157DIO    C15 8757   9.801   7.645   4.056
  157DIO     F5 8758   9.863   7.588   3.951
  157DIO    C16 8759   9.670   7.593   4.092
  157DIO    C17 8760   9.594   7.653   4.201
  157DIO    C18 8761   9.663   7.748   4.287
  157DIO    C19 8762   9.795   7.798   4.252
  157DIO     F6 8763   9.857   7.875   4.344
  157DIO    C20 8764   9.454   7.608   4.232
  157DIO     O3 8765   9.384   7.554   4.120
  157DIO    C21 8766   9.340   7.654   4.029
  157DIO    C22 8767   9.251   7.756   4.099
  157DIO    C23 8768   9.332   7.812   4.216
  157DIO     O4 8769   9.376   7.707   4.301
  157DIO    C24 8770   9.118   7.696   4.150
  157DIO    C25 8771   9.028   7.634   4.043
  157DIO    C26 8772   8.989   7.729   3.932
  157DIO     H1 8773  10.710   7.735   4.231
  157DIO     H2 8774  10.669   7.823   3.800
  157DIO     H3 8775  10.492   7.611   3.864
  157DIO     H4 8776  10.240   7.591   3.886
  157DIO     H5 8777  10.241   7.882   4.211
  157DIO     H6 8778   9.632   7.508   4.037
  157DIO     H7 8779   9.620   7.779   4.382
  157DIO     H8 8780   9.463   7.524   4.303
  157DIO     H9 8781   9.427   7.703   3.983
  157DIO    H10 8782   9.287   7.604   3.947
  157DIO    H11 8783   9.229   7.838   4.030
  157DIO    H12 8784   9.271   7.880   4.276
  157DIO    H13 8785   9.418   7.870   4.180
  157DIO    H14 8786   9.138   7.620   4.226
  157DIO    H15 8787   9.062   7.775   4.200
  157DIO    H16 8788   9.075   7.545   4.001
  157DIO    H17 8789   8.936   7.599   4.092
  157DIO    H18 8790   8.945   7.821   3.971
  157DIO    H19 8791   9.076   7.756   3.870
  157DIO    H20 8792   8.916   7.682   3.866
  158DIO     F1 8793   6.436   3.417  -0.059
  158DIO     C1 8794   6.358   3.490   0.023
  158DIO     C2 8795   6.214   3.487   0.007
  158DIO     C3 8796   6.126   3.567   0.094
  158DIO     C4 8797   6.191   3.648   0.199
  158DIO     C5 8798   6.335   3.650   0.213
  158DIO     F2 8799   6.391   3.721   0.313
  158DIO     C6 8800   6.419   3.571   0.126
  158DIO     F3 8801   6.553   3.574   0.140
  158DIO     C7 8802   5.979   3.566   0.078
  158DIO     C8 8803   5.902   3.692   0.068
  158DIO     C9 8804   5.757   3.691   0.053
  158DIO    C10 8805   5.685   3.565   0.057
  158DIO    C11 8806   5.757   3.440   0.058
  158DIO    C12 8807   5.901   3.441   0.071
  158DIO     F4 8808   5.966   3.323   0.077
  158DIO     O1 8809   5.553   3.570   0.018
  158DIO    C13 8810   5.458   3.486   0.077
  158DIO     O2 8811   5.457   3.420   0.184
  158DIO    C14 8812   5.329   3.490   0.007
  158DIO    C15 8813   5.263   3.617  -0.029
  158DIO     F5 8814   5.325   3.734  -0.006
  158DIO    C16 8815   5.132   3.623  -0.091
  158DIO    C17 8816   5.056   3.500  -0.115
  158DIO    C18 8817   5.125   3.373  -0.097
  158DIO    C19 8818   5.256   3.368  -0.036
  158DIO     F6 8819   5.319   3.248  -0.035
  158DIO    C20 8820   4.915   3.505  -0.170
  158DIO     O3 8821   4.846   3.626  -0.140
  158DIO    C21 8822   4.802   3.632  -0.005
  158DIO    C22 8823   4.713   3.513   0.030
  158DIO    C23 8824   4.794   3.387  -0.002
  158DIO     O4 8825   4.838   3.389  -0.138
  158DIO    C24 8826   4.580   3.512  -0.049
  158DIO    C25 8827   4.490   3.634  -0.029
  158DIO    C26 8828   4.451   3.659   0.115
  158DIO     H1 8829   6.172   3.424  -0.071
  158DIO     H2 8830   6.130   3.701   0.272
  158DIO     H3 8831   5.954   3.787   0.068
  158DIO     H4 8832   5.702   3.783   0.038
  158DIO     H5 8833   5.703   3.346   0.055
  158DIO     H6 8834   5.094   3.719  -0.123
  158DIO     H7 8835   5.082   3.281  -0.134
  158DIO     H8 8836   4.925   3.504  -0.279
  158DIO     H9 8837   4.889   3.636   0.062
  158DIO    H10 8838   4.749   3.727   0.009
  158DIO    H11 8839   4.691   3.514   0.137
  158DIO    H12 8840   4.733   3.298   0.012
  158DIO    H13 8841   4.880   3.378   0.065
  158DIO    H14 8842   4.600   3.502  -0.157
  158DIO    H15 8843   4.524   3.422  -0.020
  158DIO    H16 8844   4.537   3.724  -0.071
  158DIO    H17 8845   4.398   3.618  -0.088
  158DIO    H18 8846   4.407   3.570   0.161
  158DIO    H19 8847   4.538   3.690   0.175
  158DIO    H20 8848   4.378   3.740   0.121
  159DIO     F1 8849   3.828   6.535   2.943
  159DIO     C1 8850   3.751   6.425   2.945
  159DIO     C2 8851   3.607   6.440   2.954
  159DIO     C3 8852   3.518   6.322   2.959
  159DIO     C4 8853   3.583   6.189   2.952
  159DIO     C5 8854   3.728   6.177   2.944
  159DIO     F2 8855   3.783   6.055   2.934
  159DIO     C6 8856   3.811   6.294   2.940
  159DIO     F3 8857   3.945   6.282   2.933
  159DIO     C7 8858   3.371   6.335   2.968
  159DIO     C8 8859   3.294   6.260   3.070
  159DIO     C9 8860   3.150   6.272   3.079
  159DIO    C10 8861   3.077   6.351   2.981
  159DIO    C11 8862   3.150   6.431   2.884
  159DIO    C12 8863   3.294   6.421   2.877
  159DIO     F4 8864   3.359   6.492   2.783
  159DIO     O1 8865   2.945   6.377   3.010
  159DIO    C13 8866   2.850   6.387   2.908
  159DIO     O2 8867   2.849   6.348   2.788
  159DIO    C14 8868   2.721   6.438   2.956
  159DIO    C15 8869   2.655   6.383   3.076
  159DIO     F5 8870   2.718   6.289   3.151
  159DIO    C16 8871   2.524   6.427   3.120
  159DIO    C17 8872   2.448   6.524   3.043
  159DIO    C18 8873   2.517   6.593   2.934
  159DIO    C19 8874   2.649   6.549   2.890
  159DIO     F6 8875   2.711   6.626   2.799
  159DIO    C20 8876   2.308   6.563   3.082
  159DIO     O3 8877   2.238   6.462   3.155
  159DIO    C21 8878   2.194   6.354   3.072
  159DIO    C22 8879   2.105   6.405   2.959
  159DIO    C23 8880   2.186   6.511   2.884
  159DIO     O4 8881   2.230   6.613   2.972
  159DIO    C24 8882   1.973   6.466   3.009
  159DIO    C25 8883   1.882   6.372   3.089
  159DIO    C26 8884   1.843   6.245   3.015
  159DIO     H1 8885   3.564   6.540   2.956
  159DIO     H2 8886   3.523   6.099   2.946
  159DIO     H3 8887   3.346   6.199   3.143
  159DIO     H4 8888   3.095   6.225   3.159
  159DIO     H5 8889   3.095   6.494   2.815
  159DIO     H6 8890   2.486   6.388   3.214
  159DIO     H7 8891   2.474   6.680   2.887
  159DIO     H8 8892   2.317   6.647   3.151
  159DIO     H9 8893   2.281   6.301   3.032
  159DIO    H10 8894   2.141   6.282   3.135
  159DIO    H11 8895   2.083   6.323   2.890
  159DIO    H12 8896   2.125   6.558   2.806
  159DIO    H13 8897   2.272   6.466   2.833
  159DIO    H14 8898   1.992   6.555   3.071
  159DIO    H15 8899   1.916   6.502   2.922
  159DIO    H16 8900   1.929   6.346   3.185
  159DIO    H17 8901   1.790   6.427   3.115
  159DIO    H18 8902   1.800   6.269   2.917
  159DIO    H19 8903   1.930   6.180   2.999
  159DIO    H20 8904   1.770   6.189   3.073
  160DIO     F1 8905   3.826   6.748   6.150
  160DIO     C1 8906   3.748   6.832   6.079
  160DIO     C2 8907   3.604   6.815   6.082
  160DIO     C3 8908   3.515   6.903   6.003
  160DIO     C4 8909   3.581   7.010   5.923
  160DIO     C5 8910   3.725   7.024   5.922
  160DIO     F2 8911   3.781   7.125   5.852
  160DIO     C6 8912   3.809   6.936   6.000
  160DIO     F3 8913   3.943   6.950   5.997
  160DIO     C7 8914   3.369   6.887   6.003
  160DIO     C8 8915   3.292   6.880   5.877
  160DIO     C9 8916   3.147   6.864   5.878
  160DIO    C10 8917   3.075   6.866   6.004
  160DIO    C11 8918   3.147   6.866   6.130
  160DIO    C12 8919   3.291   6.878   6.129
  160DIO     F4 8920   3.356   6.883   6.247
  160DIO     O1 8921   2.942   6.827   5.998
  160DIO    C13 8922   2.848   6.885   6.083
  160DIO     O2 8923   2.847   6.991   6.151
  160DIO    C14 8924   2.719   6.815   6.079
  160DIO    C15 8925   2.652   6.782   5.951
  160DIO     F5 8926   2.715   6.806   5.834
  160DIO    C16 8927   2.522   6.719   5.944
  160DIO    C17 8928   2.446   6.693   6.066
  160DIO    C18 8929   2.515   6.710   6.194
  160DIO    C19 8930   2.646   6.771   6.200
  160DIO     F6 8931   2.709   6.770   6.320
  160DIO    C20 8932   2.305   6.639   6.061
  160DIO     O3 8933   2.235   6.670   5.940
  160DIO    C21 8934   2.192   6.806   5.936
  160DIO    C22 8935   2.103   6.838   6.055
  160DIO    C23 8936   2.184   6.805   6.181
  160DIO     O4 8937   2.228   6.669   6.178
  160DIO    C24 8938   1.970   6.759   6.056
  160DIO    C25 8939   1.879   6.781   5.934
  160DIO    C26 8940   1.841   6.926   5.911
  160DIO     H1 8941   3.562   6.736   6.143
  160DIO     H2 8942   3.520   7.083   5.871
  160DIO     H3 8943   3.343   6.880   5.782
  160DIO     H4 8944   3.092   6.851   5.786
  160DIO     H5 8945   3.093   6.862   6.223
  160DIO     H6 8946   2.484   6.689   5.848
  160DIO     H7 8947   2.472   6.672   6.286
  160DIO     H8 8948   2.315   6.529   6.061
  160DIO     H9 8949   2.278   6.873   5.933
  160DIO    H10 8950   2.139   6.821   5.841
  160DIO    H11 8951   2.080   6.946   6.056
  160DIO    H12 8952   2.123   6.818   6.271
  160DIO    H13 8953   2.270   6.872   6.191
  160DIO    H14 8954   1.990   6.652   6.064
  160DIO    H15 8955   1.914   6.787   6.146
  160DIO    H16 8956   1.927   6.741   5.844
  160DIO    H17 8957   1.788   6.723   5.949
  160DIO    H18 8958   1.797   6.970   6.001
  160DIO    H19 8959   1.928   6.986   5.881
  160DIO    H20 8960   1.767   6.933   5.830
  161DIO     F1 8961   5.112   8.930   7.256
  161DIO     C1 8962   5.034   8.937   7.146
  161DIO     C2 8963   4.890   8.927   7.160
  161DIO     C3 8964   4.801   8.932   7.042
  161DIO     C4 8965   4.867   8.950   6.910
  161DIO     C5 8966   5.011   8.959   6.899
  161DIO     F2 8967   5.067   8.979   6.778
  161DIO     C6 8968   5.095   8.953   7.016
  161DIO     F3 8969   5.229   8.961   7.004
  161DIO     C7 8970   4.655   8.922   7.054
  161DIO     C8 8971   4.578   8.826   6.971
  161DIO     C9 8972   4.433   8.816   6.982
  161DIO    C10 8973   4.361   8.907   7.069
  161DIO    C11 8974   4.433   8.997   7.157
  161DIO    C12 8975   4.577   9.005   7.147
  161DIO     F4 8976   4.642   9.093   7.227
  161DIO     O1 8977   4.228   8.876   7.093
  161DIO    C13 8978   4.134   8.977   7.111
  161DIO     O2 8979   4.133   9.100   7.082
  161DIO    C14 8980   4.005   8.925   7.158
  161DIO    C15 8981   3.938   8.810   7.092
  161DIO     F5 8982   4.001   8.744   6.993
  161DIO    C16 8983   3.808   8.762   7.133
  161DIO    C17 8984   3.732   8.831   7.236
  161DIO    C18 8985   3.801   8.934   7.314
  161DIO    C19 8986   3.932   8.981   7.274
  161DIO     F6 8987   3.995   9.066   7.359
  161DIO    C20 8988   3.591   8.789   7.272
  161DIO     O3 8989   3.521   8.725   7.164
  161DIO    C21 8990   3.478   8.817   7.065
  161DIO    C22 8991   3.389   8.925   7.125
  161DIO    C23 8992   3.470   8.991   7.237
  161DIO     O4 8993   3.514   8.894   7.331
  161DIO    C24 8994   3.256   8.870   7.181
  161DIO    C25 8995   3.165   8.798   7.081
  161DIO    C26 8996   3.127   8.883   6.961
  161DIO     H1 8997   4.848   8.916   7.259
  161DIO     H2 8998   4.806   8.964   6.821
  161DIO     H3 8999   4.629   8.759   6.904
  161DIO     H4 9000   4.378   8.741   6.928
  161DIO     H5 9001   4.379   9.061   7.225
  161DIO     H6 9002   3.770   8.672   7.087
  161DIO     H7 9003   3.758   8.973   7.405
  161DIO     H8 9004   3.601   8.713   7.350
  161DIO     H9 9005   3.564   8.861   7.015
  161DIO    H10 9006   3.425   8.760   6.988
  161DIO    H11 9007   3.366   9.000   7.049
  161DIO    H12 9008   3.409   9.064   7.290
  161DIO    H13 9009   3.556   9.045   7.196
  161DIO    H14 9010   3.276   8.801   7.264
  161DIO    H15 9011   3.200   8.953   7.225
  161DIO    H16 9012   3.213   8.705   7.047
  161DIO    H17 9013   3.074   8.768   7.133
  161DIO    H18 9014   3.083   8.978   6.992
  161DIO    H19 9015   3.214   8.904   6.897
  161DIO    H20 9016   3.053   8.830   6.900
  162DIO     F1 9017   4.901   5.962   2.534
  162DIO     C1 9018   4.823   5.919   2.433
  162DIO     C2 9019   4.679   5.917   2.450
  162DIO     C3 9020   4.590   5.868   2.342
  162DIO     C4 9021   4.656   5.825   2.216
  162DIO     C5 9022   4.800   5.828   2.202
  162DIO     F2 9023   4.855   5.791   2.085
  162DIO     C6 9024   4.884   5.875   2.310
  162DIO     F3 9025   5.017   5.877   2.295
  162DIO     C7 9026   4.444   5.864   2.357
  162DIO     C8 9027   4.367   5.742   2.326
  162DIO     C9 9028   4.222   5.738   2.341
  162DIO    C10 9029   4.149   5.858   2.377
  162DIO    C11 9030   4.222   5.978   2.416
  162DIO    C12 9031   4.366   5.981   2.404
  162DIO     F4 9032   4.431   6.095   2.435
  162DIO     O1 9033   4.017   5.841   2.413
  162DIO    C13 9034   3.923   5.939   2.384
  162DIO     O2 9035   3.922   6.036   2.303
  162DIO    C14 9036   3.794   5.914   2.449
  162DIO    C15 9037   3.727   5.782   2.442
  162DIO     F5 9038   3.790   5.678   2.383
  162DIO    C16 9039   3.596   5.757   2.500
  162DIO    C17 9040   3.521   5.865   2.561
  162DIO    C18 9041   3.589   5.992   2.584
  162DIO    C19 9042   3.721   6.016   2.528
  162DIO     F6 9043   3.784   6.130   2.565
  162DIO    C20 9044   3.380   5.844   2.612
  162DIO     O3 9045   3.310   5.738   2.545
  162DIO    C21 9046   3.267   5.775   2.414
  162DIO    C22 9047   3.178   5.899   2.420
  162DIO    C23 9048   3.258   6.008   2.490
  162DIO     O4 9049   3.303   5.964   2.618
  162DIO    C24 9050   3.045   5.875   2.495
  162DIO    C25 9051   2.954   5.766   2.437
  162DIO    C26 9052   2.916   5.788   2.292
  162DIO     H1 9053   4.636   5.951   2.543
  162DIO     H2 9054   4.595   5.797   2.130
  162DIO     H3 9055   4.418   5.651   2.297
  162DIO     H4 9056   4.167   5.646   2.326
  162DIO     H5 9057   4.167   6.066   2.448
  162DIO     H6 9058   3.558   5.656   2.499
  162DIO     H7 9059   3.547   6.068   2.648
  162DIO     H8 9060   3.390   5.810   2.716
  162DIO     H9 9061   3.353   5.793   2.350
  162DIO    H10 9062   3.214   5.690   2.371
  162DIO    H11 9063   3.155   5.932   2.318
  162DIO    H12 9064   3.197   6.098   2.504
  162DIO    H13 9065   3.345   6.038   2.429
  162DIO    H14 9066   3.065   5.851   2.600
  162DIO    H15 9067   2.988   5.969   2.496
  162DIO    H16 9068   3.002   5.668   2.448
  162DIO    H17 9069   2.862   5.762   2.498
  162DIO    H18 9070   2.872   5.887   2.277
  162DIO    H19 9071   3.002   5.778   2.226
  162DIO    H20 9072   2.842   5.713   2.261
  163DIO     F1 9073   7.174  10.286   0.461
  163DIO     C1 9074   7.097  10.337   0.558
  163DIO     C2 9075   6.953  10.338   0.541
  163DIO     C3 9076   6.864  10.395   0.645
  163DIO     C4 9077   6.929  10.449   0.766
  163DIO     C5 9078   7.074  10.447   0.781
  163DIO     F2 9079   7.129  10.494   0.895
  163DIO     C6 9080   7.157  10.391   0.678
  163DIO     F3 9081   7.291  10.391   0.692
  163DIO     C7 9082   6.717  10.398   0.629
  163DIO     C8 9083   6.640  10.523   0.650
  163DIO     C9 9084   6.496  10.525   0.635
  163DIO    C10 9085   6.423  10.403   0.609
  163DIO    C11 9086   6.496  10.280   0.580
  163DIO    C12 9087   6.640  10.278   0.593
  163DIO     F4 9088   6.705  10.162   0.571
  163DIO     O1 9089   6.291  10.416   0.572
  163DIO    C13 9090   6.196  10.321   0.609
  163DIO     O2 9091   6.195  10.231   0.698
  163DIO    C14 9092   6.067  10.341   0.542
  163DIO    C15 9093   6.001  10.473   0.538
  163DIO     F5 9094   6.064  10.582   0.588
  163DIO    C16 9095   5.870  10.493   0.479
  163DIO    C17 9096   5.794  10.380   0.426
  163DIO    C18 9097   5.863  10.252   0.414
  163DIO    C19 9098   5.995  10.232   0.472
  163DIO     F6 9099   6.057  10.116   0.444
  163DIO    C20 9100   5.654  10.397   0.374
  163DIO     O3 9101   5.584  10.508   0.432
  163DIO    C21 9102   5.540  10.482   0.565
  163DIO    C22 9103   5.451  10.358   0.570
  163DIO    C23 9104   5.532  10.244   0.510
  163DIO     O4 9105   5.576  10.277   0.378
  163DIO    C24 9106   5.319  10.376   0.493
  163DIO    C25 9107   5.228  10.490   0.541
  163DIO    C26 9108   5.189  10.480   0.688
  163DIO     H1 9109   6.910  10.296   0.451
  163DIO     H2 9110   6.869  10.484   0.850
  163DIO     H3 9111   6.692  10.615   0.672
  163DIO     H4 9112   6.441  10.618   0.642
  163DIO     H5 9113   6.441  10.190   0.556
  163DIO     H6 9114   5.832  10.594   0.471
  163DIO     H7 9115   5.820  10.171   0.356
  163DIO     H8 9116   5.663  10.422   0.268
  163DIO     H9 9117   5.627  10.470   0.631
  163DIO    H10 9118   5.487  10.571   0.601
  163DIO    H11 9119   5.429  10.334   0.675
  163DIO    H12 9120   5.471  10.153   0.502
  163DIO    H13 9121   5.618  10.219   0.573
  163DIO    H14 9122   5.338  10.391   0.386
  163DIO    H15 9123   5.262  10.282   0.500
  163DIO    H16 9124   5.275  10.586   0.522
  163DIO    H17 9125   5.136  10.488   0.481
  163DIO    H18 9126   5.146  10.382   0.711
  163DIO    H19 9127   5.276  10.495   0.753
  163DIO    H20 9128   5.116  10.557   0.713
  164DIO     F1 9129   5.027   1.808   3.960
  164DIO     C1 9130   4.950   1.739   4.045
  164DIO     C2 9131   4.806   1.754   4.039
  164DIO     C3 9132   4.717   1.681   4.132
  164DIO     C4 9133   4.782   1.590   4.229
  164DIO     C5 9134   4.927   1.576   4.233
  164DIO     F2 9135   4.982   1.489   4.320
  164DIO     C6 9136   5.010   1.649   4.141
  164DIO     F3 9137   5.144   1.636   4.146
  164DIO     C7 9138   4.570   1.697   4.129
  164DIO     C8 9139   4.493   1.726   4.252
  164DIO     C9 9140   4.349   1.741   4.248
  164DIO    C10 9141   4.276   1.717   4.125
  164DIO    C11 9142   4.348   1.696   4.001
  164DIO    C12 9143   4.493   1.684   4.004
  164DIO     F4 9144   4.557   1.659   3.888
  164DIO     O1 9145   4.144   1.757   4.123
  164DIO    C13 9146   4.049   1.685   4.050
  164DIO     O2 9147   4.048   1.569   4.002
  164DIO    C14 9148   3.920   1.755   4.042
  164DIO    C15 9149   3.854   1.810   4.162
  164DIO     F5 9150   3.916   1.806   4.282
  164DIO    C16 9151   3.723   1.873   4.158
  164DIO    C17 9152   3.647   1.877   4.033
  164DIO    C18 9153   3.716   1.839   3.910
  164DIO    C19 9154   3.848   1.777   3.915
  164DIO     F6 9155   3.910   1.758   3.797
  164DIO    C20 9156   3.507   1.932   4.029
  164DIO     O3 9157   3.437   1.921   4.154
  164DIO    C21 9158   3.393   1.789   4.181
  164DIO    C22 9159   3.304   1.736   4.069
  164DIO    C23 9160   3.385   1.747   3.940
  164DIO     O4 9161   3.429   1.881   3.919
  164DIO    C24 9162   3.171   1.814   4.055
  164DIO    C25 9163   3.081   1.813   4.179
  164DIO    C26 9164   3.042   1.674   4.227
  164DIO     H1 9165   4.763   1.821   3.965
  164DIO     H2 9166   4.722   1.527   4.293
  164DIO     H3 9167   4.545   1.742   4.345
  164DIO     H4 9168   4.293   1.771   4.337
  164DIO     H5 9169   4.294   1.684   3.908
  164DIO     H6 9170   3.685   1.919   4.248
  164DIO     H7 9171   3.673   1.860   3.813
  164DIO     H8 9172   3.516   2.039   4.010
  164DIO     H9 9173   3.480   1.723   4.196
  164DIO    H10 9174   3.340   1.790   4.277
  164DIO    H11 9175   3.282   1.630   4.087
  164DIO    H12 9176   3.324   1.719   3.854
  164DIO    H13 9177   3.471   1.679   3.941
  164DIO    H14 9178   3.191   1.918   4.028
  164DIO    H15 9179   3.115   1.771   3.972
  164DIO    H16 9180   3.128   1.869   4.261
  164DIO    H17 9181   2.989   1.868   4.154
  164DIO    H18 9182   2.998   1.615   4.146
  164DIO    H19 9183   3.129   1.620   4.266
  164DIO    H20 9184   2.969   1.682   4.307
  165DIO     F1 9185   9.374   5.339   8.292
  165DIO     C1 9186   9.296   5.433   8.233
  165DIO     C2 9187   9.152   5.416   8.234
  165DIO     C3 9188   9.063   5.515   8.169
  165DIO     C4 9189   9.129   5.632   8.106
  165DIO     C5 9190   9.273   5.646   8.107
  165DIO     F2 9191   9.328   5.757   8.052
  165DIO     C6 9192   9.357   5.548   8.170
  165DIO     F3 9193   9.491   5.562   8.170
  165DIO     C7 9194   8.917   5.499   8.167
  165DIO     C8 9195   8.840   5.510   8.041
  165DIO     C9 9196   8.695   5.495   8.040
  165DIO    C10 9197   8.622   5.478   8.164
  165DIO    C11 9198   8.695   5.459   8.288
  165DIO    C12 9199   8.839   5.472   8.289
  165DIO     F4 9200   8.904   5.459   8.407
  165DIO     O1 9201   8.490   5.441   8.153
  165DIO    C13 9202   8.396   5.485   8.245
  165DIO     O2 9203   8.395   5.580   8.328
  165DIO    C14 9204   8.267   5.417   8.231
  165DIO    C15 9205   8.200   5.402   8.099
  165DIO     F5 9206   8.263   5.444   7.987
  165DIO    C16 9207   8.070   5.342   8.084
  165DIO    C17 9208   7.994   5.298   8.200
  165DIO    C18 9209   8.063   5.295   8.329
  165DIO    C19 9210   8.194   5.355   8.344
  165DIO     F6 9211   8.257   5.335   8.462
  165DIO    C20 9212   7.853   5.245   8.187
  165DIO     O3 9213   7.783   5.294   8.072
  165DIO    C21 9214   7.740   5.429   8.088
  165DIO    C22 9215   7.651   5.443   8.211
  165DIO    C23 9216   7.732   5.391   8.330
  165DIO     O4 9217   7.776   5.258   8.307
  165DIO    C24 9218   7.518   5.365   8.199
  165DIO    C25 9219   7.427   5.404   8.082
  165DIO    C26 9220   7.389   5.551   8.081
  165DIO     H1 9221   9.109   5.329   8.282
  165DIO     H2 9222   9.068   5.712   8.065
  165DIO     H3 9223   8.891   5.525   7.947
  165DIO     H4 9224   8.640   5.495   7.947
  165DIO     H5 9225   8.641   5.441   8.380
  165DIO     H6 9226   8.031   5.326   7.983
  165DIO     H7 9227   8.020   5.244   8.414
  165DIO     H8 9228   7.863   5.137   8.170
  165DIO     H9 9229   7.826   5.495   8.095
  165DIO    H10 9230   7.687   5.458   7.997
  165DIO    H11 9231   7.628   5.549   8.228
  165DIO    H12 9232   7.670   5.390   8.421
  165DIO    H13 9233   7.818   5.456   8.350
  165DIO    H14 9234   7.538   5.257   8.192
  165DIO    H15 9235   7.462   5.379   8.293
  165DIO    H16 9236   7.475   5.378   7.987
  165DIO    H17 9237   7.336   5.344   8.088
  165DIO    H18 9238   7.345   5.582   8.177
  165DIO    H19 9239   7.475   5.615   8.061
  165DIO    H20 9240   7.315   5.570   8.002
  166DIO     F1 9241   9.399   3.343   6.000
  166DIO     C1 9242   9.321   3.355   6.109
  166DIO     C2 9243   9.177   3.362   6.094
  166DIO     C3 9244   9.088   3.377   6.211
  166DIO     C4 9245   9.154   3.383   6.344
  166DIO     C5 9246   9.298   3.375   6.356
  166DIO     F2 9247   9.353   3.376   6.479
  166DIO     C6 9248   9.382   3.361   6.240
  166DIO     F3 9249   9.516   3.356   6.253
  166DIO     C7 9250   8.942   3.386   6.197
  166DIO     C8 9251   8.865   3.494   6.263
  166DIO     C9 9252   8.720   3.502   6.250
  166DIO    C10 9253   8.647   3.397   6.180
  166DIO    C11 9254   8.720   3.294   6.108
  166DIO    C12 9255   8.864   3.287   6.119
  166DIO     F4 9256   8.929   3.187   6.056
  166DIO     O1 9257   8.515   3.424   6.151
  166DIO    C13 9258   8.421   3.321   6.150
  166DIO     O2 9259   8.420   3.205   6.200
  166DIO    C14 9260   8.292   3.364   6.096
  166DIO    C15 9261   8.225   3.489   6.140
  166DIO     F5 9262   8.288   3.571   6.227
  166DIO    C16 9263   8.095   3.529   6.092
  166DIO    C17 9264   8.019   3.444   6.002
  166DIO    C18 9265   8.088   3.329   5.943
  166DIO    C19 9266   8.219   3.290   5.990
  166DIO     F6 9267   8.282   3.192   5.921
  166DIO    C20 9268   7.878   3.479   5.960
  166DIO     O3 9269   7.808   3.561   6.055
  166DIO    C21 9270   7.765   3.487   6.169
  166DIO    C22 9271   7.676   3.370   6.128
  166DIO    C23 9272   7.757   3.286   6.029
  166DIO     O4 9273   7.801   3.365   5.919
  166DIO    C24 9274   7.543   3.415   6.063
  166DIO    C25 9275   7.452   3.503   6.149
  166DIO    C26 9276   7.414   3.440   6.282
  166DIO     H1 9277   9.134   3.356   5.994
  166DIO     H2 9278   9.093   3.384   6.434
  166DIO     H3 9279   8.916   3.572   6.317
  166DIO     H4 9280   8.665   3.586   6.290
  166DIO     H5 9281   8.666   3.219   6.052
  166DIO     H6 9282   8.056   3.626   6.122
  166DIO     H7 9283   8.045   3.275   5.860
  166DIO     H8 9284   7.888   3.541   5.870
  166DIO     H9 9285   7.851   3.452   6.225
  166DIO    H10 9286   7.712   3.557   6.235
  166DIO    H11 9287   7.653   3.309   6.216
  166DIO    H12 9288   7.695   3.205   5.989
  166DIO    H13 9289   7.843   3.240   6.079
  166DIO    H14 9290   7.563   3.469   5.969
  166DIO    H15 9291   7.487   3.325   6.034
  166DIO    H16 9292   7.500   3.600   6.167
  166DIO    H17 9293   7.361   3.524   6.093
  166DIO    H18 9294   7.370   3.341   6.268
  166DIO    H19 9295   7.500   3.430   6.348
  166DIO    H20 9296   7.340   3.502   6.333
  167DIO     F1 9297  10.974   9.258   7.440
  167DIO     C1 9298  10.897   9.290   7.335
  167DIO     C2 9299  10.753   9.278   7.346
  167DIO     C3 9300  10.664   9.310   7.232
  167DIO     C4 9301  10.729   9.358   7.108
  167DIO     C5 9302  10.874   9.370   7.100
  167DIO     F2 9303  10.929   9.418   6.987
  167DIO     C6 9304  10.957   9.337   7.212
  167DIO     F3 9305  11.091   9.347   7.202
  167DIO     C7 9306  10.517   9.297   7.242
  167DIO     C8 9307  10.440   9.224   7.139
  167DIO     C9 9308  10.296   9.212   7.147
  167DIO    C10 9309  10.223   9.280   7.253
  167DIO    C11 9310  10.295   9.346   7.360
  167DIO    C12 9311  10.440   9.357   7.352
  167DIO     F4 9312  10.504   9.424   7.450
  167DIO     O1 9313  10.091   9.244   7.269
  167DIO    C13 9314   9.996   9.338   7.310
  167DIO     O2 9315   9.995   9.464   7.311
  167DIO    C14 9316   9.867   9.277   7.344
  167DIO    C15 9317   9.801   9.180   7.253
  167DIO     F5 9318   9.863   9.138   7.141
  167DIO    C16 9319   9.670   9.124   7.281
  167DIO    C17 9320   9.594   9.167   7.398
  167DIO    C18 9321   9.663   9.249   7.497
  167DIO    C19 9322   9.795   9.304   7.470
  167DIO     F6 9323   9.857   9.366   7.572
  167DIO    C20 9324   9.454   9.118   7.423
  167DIO     O3 9325   9.384   9.080   7.303
  167DIO    C21 9326   9.340   9.193   7.228
  167DIO    C22 9327   9.251   9.284   7.312
  167DIO    C23 9328   9.332   9.322   7.436
  167DIO     O4 9329   9.376   9.206   7.505
  167DIO    C24 9330   9.118   9.217   7.354
  167DIO    C25 9331   9.028   9.171   7.239
  167DIO    C26 9332   8.989   9.281   7.142
  167DIO     H1 9333  10.710   9.244   7.440
  167DIO     H2 9334  10.669   9.393   7.025
  167DIO     H3 9335  10.492   9.174   7.058
  167DIO     H4 9336  10.240   9.151   7.077
  167DIO     H5 9337  10.241   9.393   7.441
  167DIO     H6 9338   9.632   9.047   7.215
  167DIO     H7 9339   9.620   9.265   7.595
  167DIO     H8 9340   9.463   9.025   7.480
  167DIO     H9 9341   9.427   9.248   7.190
  167DIO    H10 9342   9.287   9.155   7.139
  167DIO    H11 9343   9.229   9.375   7.255
  167DIO    H12 9344   9.271   9.381   7.505
  167DIO    H13 9345   9.418   9.384   7.409
  167DIO    H14 9346   9.138   9.130   7.418
  167DIO    H15 9347   9.062   9.288   7.415
  167DIO    H16 9348   9.075   9.089   7.184
  167DIO    H17 9349   8.936   9.129   7.283
  167DIO    H18 9350   8.945   9.367   7.195
  167DIO    H19 9351   9.076   9.317   7.085
  167DIO    H20 9352   8.916   9.244   7.070
  168DIO     F1 9353   5.203   2.910   2.255
  168DIO     C1 9354   5.126   2.993   2.327
  168DIO     C2 9355   4.982   2.987   2.311
  168DIO     C3 9356   4.893   3.078   2.387
  168DIO     C4 9357   4.958   3.172   2.481
  168DIO     C5 9358   5.103   3.175   2.495
  168DIO     F2 9359   5.158   3.259   2.585
  168DIO     C6 9360   5.186   3.086   2.419
  168DIO     F3 9361   5.320   3.091   2.432
  168DIO     C7 9362   4.747   3.075   2.371
  168DIO     C8 9363   4.669   3.199   2.346
  168DIO     C9 9364   4.525   3.196   2.331
  168DIO    C10 9365   4.452   3.072   2.351
  168DIO    C11 9366   4.525   2.947   2.368
  168DIO    C12 9367   4.669   2.950   2.380
  168DIO     F4 9368   4.734   2.834   2.402
  168DIO     O1 9369   4.320   3.072   2.311
  168DIO    C13 9370   4.225   2.996   2.380
  168DIO     O2 9371   4.225   2.944   2.495
  168DIO    C14 9372   4.096   2.990   2.311
  168DIO    C15 9373   4.030   3.112   2.259
  168DIO     F5 9374   4.093   3.231   2.267
  168DIO    C16 9375   3.899   3.109   2.196
  168DIO    C17 9376   3.823   2.985   2.188
  168DIO    C18 9377   3.892   2.861   2.223
  168DIO    C19 9378   4.024   2.864   2.284
  168DIO     F6 9379   4.086   2.745   2.300
  168DIO    C20 9380   3.683   2.982   2.133
  168DIO     O3 9381   3.613   3.107   2.148
  168DIO    C21 9382   3.569   3.130   2.281
  168DIO    C22 9383   3.480   3.017   2.330
  168DIO    C23 9384   3.561   2.888   2.315
  168DIO     O4 9385   3.605   2.872   2.181
  168DIO    C24 9386   3.348   3.005   2.252
  168DIO    C25 9387   3.257   3.129   2.256
  168DIO    C26 9388   3.219   3.172   2.397
  168DIO     H1 9389   4.939   2.915   2.242
  168DIO     H2 9390   4.898   3.234   2.546
  168DIO     H3 9391   4.721   3.293   2.333
  168DIO     H4 9392   4.470   3.285   2.304
  168DIO     H5 9393   4.470   2.854   2.377
  168DIO     H6 9394   3.861   3.201   2.153
  168DIO     H7 9395   3.849   2.765   2.198
  168DIO     H8 9396   3.692   2.967   2.025
  168DIO     H9 9397   3.656   3.143   2.347
  168DIO    H10 9398   3.517   3.226   2.283
  168DIO    H11 9399   3.458   3.031   2.437
  168DIO    H12 9400   3.500   2.801   2.341
  168DIO    H13 9401   3.647   2.887   2.383
  168DIO    H14 9402   3.368   2.981   2.147
  168DIO    H15 9403   3.291   2.920   2.292
  168DIO    H16 9404   3.304   3.212   2.204
  168DIO    H17 9405   3.165   3.106   2.200
  168DIO    H18 9406   3.175   3.090   2.453
  168DIO    H19 9407   3.305   3.210   2.452
  168DIO    H20 9408   3.145   3.253   2.392
  169DIO     F1 9409   5.720   8.554   7.890
  169DIO     C1 9410   5.642   8.663   7.880
  169DIO     C2 9411   5.498   8.648   7.873
  169DIO     C3 9412   5.409   8.766   7.860
  169DIO     C4 9413   5.475   8.899   7.857
  169DIO     C5 9414   5.619   8.911   7.864
  169DIO     F2 9415   5.674   9.034   7.866
  169DIO     C6 9416   5.703   8.794   7.876
  169DIO     F3 9417   5.836   8.807   7.882
  169DIO     C7 9418   5.263   8.752   7.851
  169DIO     C8 9419   5.186   8.820   7.744
  169DIO     C9 9420   5.041   8.807   7.736
  169DIO    C10 9421   4.968   8.735   7.839
  169DIO    C11 9422   5.041   8.662   7.941
  169DIO    C12 9423   5.185   8.672   7.948
  169DIO     F4 9424   5.250   8.608   8.047
  169DIO     O1 9425   4.836   8.707   7.812
  169DIO    C13 9426   4.742   8.704   7.914
  169DIO     O2 9427   4.741   8.751   8.031
  169DIO    C14 9428   4.612   8.650   7.871
  169DIO    C15 9429   4.546   8.697   7.747
  169DIO     F5 9430   4.609   8.785   7.666
  169DIO    C16 9431   4.415   8.650   7.705
  169DIO    C17 9432   4.340   8.558   7.789
  169DIO    C18 9433   4.408   8.497   7.903
  169DIO    C19 9434   4.540   8.544   7.943
  169DIO     F6 9435   4.602   8.473   8.040
  169DIO    C20 9436   4.199   8.517   7.753
  169DIO     O3 9437   4.129   8.613   7.674
  169DIO    C21 9438   4.085   8.726   7.749
  169DIO    C22 9439   3.997   8.683   7.865
  169DIO    C23 9440   4.077   8.582   7.947
  169DIO     O4 9441   4.122   8.474   7.866
  169DIO    C24 9442   3.864   8.618   7.819
  169DIO    C25 9443   3.773   8.707   7.733
  169DIO    C26 9444   3.735   8.838   7.799
  169DIO     H1 9445   5.455   8.549   7.877
  169DIO     H2 9446   5.414   8.989   7.858
  169DIO     H3 9447   5.237   8.876   7.667
  169DIO     H4 9448   4.986   8.849   7.653
  169DIO     H5 9449   4.986   8.604   8.015
  169DIO     H6 9450   4.377   8.682   7.609
  169DIO     H7 9451   4.365   8.413   7.955
  169DIO     H8 9452   4.209   8.428   7.689
  169DIO     H9 9453   4.172   8.782   7.786
  169DIO    H10 9454   4.033   8.793   7.681
  169DIO    H11 9455   3.974   8.769   7.928
  169DIO    H12 9456   4.016   8.540   8.028
  169DIO    H13 9457   4.163   8.631   7.995
  169DIO    H14 9458   3.884   8.526   7.763
  169DIO    H15 9459   3.807   8.588   7.908
  169DIO    H16 9460   3.820   8.727   7.636
  169DIO    H17 9461   3.681   8.651   7.711
  169DIO    H18 9462   3.691   8.822   7.897
  169DIO    H19 9463   3.821   8.904   7.810
  169DIO    H20 9464   3.661   8.891   7.737
  170DIO     F1 9465  10.119   2.486  10.221
  170DIO     C1 9466  10.042   2.420  10.133
  170DIO     C2 9467   9.897   2.422  10.150
  170DIO     C3 9468   9.809   2.349  10.056
  170DIO     C4 9469   9.874   2.278   9.944
  170DIO     C5 9470  10.018   2.277   9.930
  170DIO     F2 9471  10.074   2.214   9.824
  170DIO     C6 9472  10.102   2.349  10.023
  170DIO     F3 9473  10.236   2.347  10.009
  170DIO     C7 9474   9.662   2.349  10.072
  170DIO     C8 9475   9.585   2.223  10.071
  170DIO     C9 9476   9.440   2.222  10.086
  170DIO    C10 9477   9.368   2.348  10.093
  170DIO    C11 9478   9.440   2.473  10.102
  170DIO    C12 9479   9.584   2.473  10.090
  170DIO     F4 9480   9.649   2.591  10.093
  170DIO     O1 9481   9.236   2.340  10.131
  170DIO    C13 9482   9.141   2.428  10.080
  170DIO     O2 9483   9.140   2.503   9.979
  170DIO    C14 9484   9.012   2.419  10.149
  170DIO    C15 9485   8.946   2.289  10.173
  170DIO     F5 9486   9.008   2.174  10.141
  170DIO    C16 9487   8.815   2.278  10.235
  170DIO    C17 9488   8.739   2.398  10.270
  170DIO    C18 9489   8.808   2.526  10.262
  170DIO    C19 9490   8.940   2.537  10.202
  170DIO     F6 9491   9.002   2.656  10.212
  170DIO    C20 9492   8.598   2.389  10.324
  170DIO     O3 9493   8.529   2.271  10.284
  170DIO    C21 9494   8.485   2.276  10.148
  170DIO    C22 9495   8.396   2.397  10.124
  170DIO    C23 9496   8.477   2.520  10.167
  170DIO     O4 9497   8.521   2.507  10.302
  170DIO    C24 9498   8.263   2.392  10.203
  170DIO    C25 9499   8.173   2.272  10.173
  170DIO    C26 9500   8.134   2.259  10.026
  170DIO     H1 9501   9.855   2.478  10.232
  170DIO     H2 9502   9.814   2.231   9.867
  170DIO     H3 9503   9.637   2.128  10.063
  170DIO     H4 9504   9.385   2.130  10.093
  170DIO     H5 9505   9.386   2.566  10.113
  170DIO     H6 9506   8.777   2.180  10.259
  170DIO     H7 9507   8.765   2.615  10.307
  170DIO     H8 9508   8.608   2.381  10.433
  170DIO     H9 9509   8.572   2.278  10.081
  170DIO    H10 9510   8.432   2.183  10.126
  170DIO    H11 9511   8.374   2.406  10.017
  170DIO    H12 9512   8.416   2.611  10.160
  170DIO    H13 9513   8.563   2.535  10.100
  170DIO    H14 9514   8.283   2.393  10.311
  170DIO    H15 9515   8.207   2.484  10.182
  170DIO    H16 9516   8.220   2.179  10.207
  170DIO    H17 9517   8.081   2.283  10.232
  170DIO    H18 9518   8.090   2.352   9.989
  170DIO    H19 9519   8.221   2.234   9.964
  170DIO    H20 9520   8.061   2.179  10.014
  171DIO     F1 9521   6.676   8.020   3.506
  171DIO     C1 9522   6.598   7.915   3.472
  171DIO     C2 9523   6.454   7.926   3.485
  171DIO     C3 9524   6.365   7.813   3.451
  171DIO     C4 9525   6.431   7.690   3.401
  171DIO     C5 9526   6.575   7.681   3.389
  171DIO     F2 9527   6.631   7.569   3.340
  171DIO     C6 9528   6.659   7.793   3.424
  171DIO     F3 9529   6.793   7.783   3.414
  171DIO     C7 9530   6.219   7.822   3.464
  171DIO     C8 9531   6.142   7.718   3.536
  171DIO     C9 9532   5.997   7.726   3.548
  171DIO    C10 9533   5.925   7.833   3.482
  171DIO    C11 9534   5.997   7.941   3.417
  171DIO    C12 9535   6.141   7.933   3.406
  171DIO     F4 9536   6.206   8.032   3.341
  171DIO     O1 9537   5.792   7.848   3.517
  171DIO    C13 9538   5.698   7.891   3.425
  171DIO     O2 9539   5.697   7.894   3.299
  171DIO    C14 9540   5.569   7.923   3.486
  171DIO    C15 9541   5.503   7.831   3.581
  171DIO     F5 9542   5.565   7.719   3.621
  171DIO    C16 9543   5.372   7.859   3.638
  171DIO    C17 9544   5.296   7.976   3.597
  171DIO    C18 9545   5.365   8.077   3.517
  171DIO    C19 9546   5.496   8.050   3.461
  171DIO     F6 9547   5.559   8.153   3.400
  171DIO    C20 9548   5.155   8.000   3.646
  171DIO     O3 9549   5.086   7.880   3.682
  171DIO    C21 9550   5.042   7.806   3.568
  171DIO    C22 9551   4.953   7.892   3.479
  171DIO    C23 9552   5.034   8.016   3.442
  171DIO     O4 9553   5.078   8.084   3.560
  171DIO    C24 9554   4.820   7.933   3.546
  171DIO    C25 9555   4.730   7.817   3.591
  171DIO    C26 9556   4.691   7.722   3.478
  171DIO     H1 9557   6.412   8.019   3.520
  171DIO     H2 9558   6.370   7.607   3.365
  171DIO     H3 9559   6.193   7.636   3.584
  171DIO     H4 9560   5.942   7.655   3.608
  171DIO     H5 9561   5.943   8.023   3.372
  171DIO     H6 9562   5.334   7.791   3.714
  171DIO     H7 9563   5.322   8.175   3.502
  171DIO     H8 9564   5.165   8.056   3.740
  171DIO     H9 9565   5.129   7.769   3.513
  171DIO    H10 9566   4.989   7.717   3.604
  171DIO    H11 9567   4.930   7.836   3.387
  171DIO    H12 9568   4.973   8.086   3.385
  171DIO    H13 9569   5.120   7.990   3.380
  171DIO    H14 9570   4.840   7.996   3.634
  171DIO    H15 9571   4.764   7.995   3.476
  171DIO    H16 9572   4.777   7.761   3.672
  171DIO    H17 9573   4.638   7.860   3.633
  171DIO    H18 9574   4.647   7.776   3.394
  171DIO    H19 9575   4.778   7.666   3.442
  171DIO    H20 9576   4.617   7.650   3.514
  172DIO     F1 9577   7.002   0.664   5.778
  172DIO     C1 9578   6.925   0.571   5.719
  172DIO     C2 9579   6.781   0.579   5.734
  172DIO     C3 9580   6.692   0.478   5.672
  172DIO     C4 9581   6.757   0.371   5.593
  172DIO     C5 9582   6.902   0.366   5.579
  172DIO     F2 9583   6.957   0.270   5.503
  172DIO     C6 9584   6.985   0.466   5.641
  172DIO     F3 9585   7.119   0.459   5.629
  172DIO     C7 9586   6.545   0.483   5.687
  172DIO     C8 9587   6.468   0.365   5.730
  172DIO     C9 9588   6.324   0.370   5.745
  172DIO    C10 9589   6.251   0.490   5.707
  172DIO    C11 9590   6.324   0.610   5.672
  172DIO    C12 9591   6.468   0.606   5.660
  172DIO     F4 9592   6.533   0.718   5.621
  172DIO     O1 9593   6.119   0.495   5.746
  172DIO    C13 9594   6.024   0.560   5.667
  172DIO     O2 9595   6.023   0.595   5.546
  172DIO    C14 9596   5.895   0.576   5.735
  172DIO    C15 9597   5.829   0.463   5.803
  172DIO     F5 9598   5.892   0.344   5.813
  172DIO    C16 9599   5.698   0.475   5.865
  172DIO    C17 9600   5.622   0.599   5.855
  172DIO    C18 9601   5.691   0.717   5.803
  172DIO    C19 9602   5.823   0.705   5.742
  172DIO     F6 9603   5.885   0.820   5.709
  172DIO    C20 9604   5.482   0.610   5.909
  172DIO     O3 9605   5.412   0.484   5.913
  172DIO    C21 9606   5.368   0.442   5.784
  172DIO    C22 9607   5.279   0.547   5.719
  172DIO    C23 9608   5.360   0.677   5.716
  172DIO     O4 9609   5.404   0.712   5.846
  172DIO    C24 9610   5.147   0.570   5.795
  172DIO    C25 9611   5.056   0.447   5.809
  172DIO    C26 9612   5.017   0.383   5.676
  172DIO     H1 9613   6.738   0.660   5.792
  172DIO     H2 9614   6.697   0.301   5.537
  172DIO     H3 9615   6.520   0.273   5.757
  172DIO     H4 9616   6.269   0.285   5.784
  172DIO     H5 9617   6.269   0.701   5.649
  172DIO     H6 9618   5.660   0.391   5.922
  172DIO     H7 9619   5.648   0.815   5.813
  172DIO     H8 9620   5.491   0.640   6.014
  172DIO     H9 9621   5.455   0.420   5.721
  172DIO    H10 9622   5.315   0.347   5.797
  172DIO    H11 9623   5.257   0.517   5.616
  172DIO    H12 9624   5.299   0.759   5.677
  172DIO    H13 9625   5.446   0.667   5.648
  172DIO    H14 9626   5.166   0.609   5.895
  172DIO    H15 9627   5.090   0.648   5.742
  172DIO    H16 9628   5.103   0.372   5.873
  172DIO    H17 9629   4.964   0.478   5.860
  172DIO    H18 9630   4.974   0.457   5.608
  172DIO    H19 9631   5.104   0.338   5.627
  172DIO    H20 9632   4.944   0.304   5.693
  173DIO     F1 9633   5.208   2.550   0.617
  173DIO     C1 9634   5.131   2.450   0.571
  173DIO     C2 9635   4.986   2.460   0.585
  173DIO     C3 9636   4.898   2.351   0.537
  173DIO     C4 9637   4.963   2.235   0.474
  173DIO     C5 9638   5.107   2.227   0.461
  173DIO     F2 9639   5.163   2.122   0.399
  173DIO     C6 9640   5.191   2.335   0.509
  173DIO     F3 9641   5.325   2.326   0.497
  173DIO     C7 9642   4.751   2.359   0.552
  173DIO     C8 9643   4.674   2.247   0.611
  173DIO     C9 9644   4.529   2.254   0.624
  173DIO    C10 9645   4.457   2.368   0.570
  173DIO    C11 9646   4.529   2.482   0.518
  173DIO    C12 9647   4.673   2.476   0.507
  173DIO     F4 9648   4.738   2.582   0.454
  173DIO     O1 9649   4.325   2.379   0.608
  173DIO    C13 9650   4.230   2.432   0.520
  173DIO     O2 9651   4.229   2.449   0.396
  173DIO    C14 9652   4.101   2.457   0.585
  173DIO    C15 9653   4.035   2.355   0.669
  173DIO     F5 9654   4.097   2.238   0.696
  173DIO    C16 9655   3.904   2.375   0.729
  173DIO    C17 9656   3.828   2.497   0.701
  173DIO    C18 9657   3.897   2.606   0.633
  173DIO    C19 9658   4.029   2.586   0.575
  173DIO     F6 9659   4.091   2.695   0.527
  173DIO    C20 9660   3.687   2.515   0.753
  173DIO     O3 9661   3.618   2.391   0.775
  173DIO    C21 9662   3.574   2.331   0.653
  173DIO    C22 9663   3.485   2.426   0.574
  173DIO    C23 9664   3.566   2.554   0.552
  173DIO     O4 9665   3.610   2.608   0.677
  173DIO    C24 9666   3.352   2.459   0.646
  173DIO    C25 9667   3.262   2.340   0.677
  173DIO    C26 9668   3.223   2.258   0.554
  173DIO     H1 9669   4.944   2.548   0.630
  173DIO     H2 9670   4.903   2.157   0.428
  173DIO     H3 9671   4.726   2.160   0.650
  173DIO     H4 9672   4.474   2.176   0.675
  173DIO     H5 9673   4.475   2.569   0.483
  173DIO     H6 9674   3.866   2.299   0.796
  173DIO     H7 9675   3.854   2.705   0.630
  173DIO     H8 9676   3.697   2.560   0.853
  173DIO     H9 9677   3.661   2.301   0.594
  173DIO    H10 9678   3.521   2.239   0.679
  173DIO    H11 9679   3.463   2.382   0.476
  173DIO    H12 9680   3.505   2.631   0.503
  173DIO    H13 9681   3.652   2.536   0.487
  173DIO    H14 9682   3.372   2.512   0.740
  173DIO    H15 9683   3.296   2.529   0.583
  173DIO    H16 9684   3.309   2.274   0.751
  173DIO    H17 9685   3.170   2.377   0.724
  173DIO    H18 9686   3.179   2.322   0.477
  173DIO    H19 9687   3.310   2.206   0.512
  173DIO    H20 9688   3.150   2.182   0.582
  174DIO     F1 9689   2.810   1.353   3.997
  174DIO     C1 9690   2.733   1.442   3.932
  174DIO     C2 9691   2.589   1.425   3.933
  174DIO     C3 9692   2.500   1.519   3.861
  174DIO     C4 9693   2.565   1.631   3.790
  174DIO     C5 9694   2.710   1.646   3.790
  174DIO     F2 9695   2.765   1.751   3.727
  174DIO     C6 9696   2.793   1.552   3.861
  174DIO     F3 9697   2.927   1.566   3.859
  174DIO     C7 9698   2.353   1.503   3.861
  174DIO     C8 9699   2.276   1.505   3.734
  174DIO     C9 9700   2.132   1.490   3.734
  174DIO    C10 9701   2.059   1.482   3.859
  174DIO    C11 9702   2.132   1.472   3.985
  174DIO    C12 9703   2.276   1.485   3.985
  174DIO     F4 9704   2.341   1.481   4.103
  174DIO     O1 9705   1.927   1.444   3.851
  174DIO    C13 9706   1.832   1.495   3.940
  174DIO     O2 9707   1.831   1.595   4.015
  174DIO    C14 9708   1.703   1.426   3.930
  174DIO    C15 9709   1.637   1.402   3.800
  174DIO     F5 9710   1.700   1.435   3.685
  174DIO    C16 9711   1.506   1.340   3.789
  174DIO    C17 9712   1.430   1.305   3.909
  174DIO    C18 9713   1.499   1.312   4.037
  174DIO    C19 9714   1.631   1.372   4.048
  174DIO     F6 9715   1.693   1.362   4.167
  174DIO    C20 9716   1.290   1.251   3.899
  174DIO     O3 9717   1.220   1.292   3.781
  174DIO    C21 9718   1.176   1.427   3.787
  174DIO    C22 9719   1.087   1.450   3.909
  174DIO    C23 9720   1.168   1.407   4.031
  174DIO     O4 9721   1.212   1.273   4.018
  174DIO    C24 9722   0.955   1.372   3.903
  174DIO    C25 9723   0.864   1.402   3.783
  174DIO    C26 9724   0.825   1.549   3.771
  174DIO     H1 9725   2.546   1.342   3.988
  174DIO     H2 9726   2.505   1.708   3.744
  174DIO     H3 9727   2.328   1.513   3.640
  174DIO     H4 9728   2.077   1.483   3.641
  174DIO     H5 9729   2.077   1.461   4.078
  174DIO     H6 9730   1.468   1.317   3.690
  174DIO     H7 9731   1.456   1.267   4.126
  174DIO     H8 9732   1.299   1.142   3.891
  174DIO     H9 9733   1.263   1.494   3.789
  174DIO    H10 9734   1.123   1.449   3.694
  174DIO    H11 9735   1.065   1.557   3.917
  174DIO    H12 9736   1.107   1.414   4.122
  174DIO    H13 9737   1.254   1.474   4.047
  174DIO    H14 9738   0.974   1.264   3.903
  174DIO    H15 9739   0.898   1.392   3.995
  174DIO    H16 9740   0.911   1.369   3.690
  174DIO    H17 9741   0.772   1.343   3.794
  174DIO    H18 9742   0.782   1.586   3.864
  174DIO    H19 9743   0.912   1.611   3.746
  174DIO    H20 9744   0.752   1.562   3.691
  175DIO     F1 9745   3.745   2.599   9.735
  175DIO     C1 9746   3.667   2.700   9.692
  175DIO     C2 9747   3.523   2.683   9.690
  175DIO     C3 9748   3.434   2.791   9.642
  175DIO     C4 9749   3.500   2.917   9.599
  175DIO     C5 9750   3.644   2.931   9.602
  175DIO     F2 9751   3.700   3.049   9.566
  175DIO     C6 9752   3.728   2.824   9.649
  175DIO     F3 9753   3.862   2.838   9.651
  175DIO     C7 9754   3.288   2.776   9.638
  175DIO     C8 9755   3.211   2.807   9.515
  175DIO     C9 9756   3.066   2.793   9.511
  175DIO    C10 9757   2.994   2.756   9.632
  175DIO    C11 9758   3.066   2.717   9.751
  175DIO    C12 9759   3.210   2.729   9.754
  175DIO     F4 9760   3.275   2.698   9.868
  175DIO     O1 9761   2.861   2.721   9.615
  175DIO    C13 9762   2.767   2.750   9.713
  175DIO     O2 9763   2.766   2.830   9.810
  175DIO    C14 9764   2.638   2.685   9.687
  175DIO    C15 9765   2.571   2.692   9.555
  175DIO     F5 9766   2.634   2.751   9.451
  175DIO    C16 9767   2.441   2.634   9.530
  175DIO    C17 9768   2.365   2.572   9.638
  175DIO    C18 9769   2.434   2.549   9.765
  175DIO    C19 9770   2.565   2.605   9.789
  175DIO     F6 9771   2.628   2.568   9.903
  175DIO    C20 9772   2.224   2.522   9.617
  175DIO     O3 9773   2.154   2.589   9.511
  175DIO    C21 9774   2.111   2.719   9.549
  175DIO    C22 9775   2.022   2.714   9.672
  175DIO    C23 9776   2.103   2.643   9.781
  175DIO     O4 9777   2.147   2.515   9.737
  175DIO    C24 9778   1.889   2.639   9.648
  175DIO    C25 9779   1.798   2.696   9.539
  175DIO    C26 9780   1.760   2.842   9.562
  175DIO     H1 9781   3.481   2.590   9.725
  175DIO     H2 9782   3.439   3.003   9.572
  175DIO     H3 9783   3.262   2.837   9.425
  175DIO     H4 9784   3.011   2.808   9.420
  175DIO     H5 9785   3.012   2.685   9.839
  175DIO     H6 9786   2.403   2.635   9.429
  175DIO     H7 9787   2.391   2.485   9.841
  175DIO     H8 9788   2.234   2.418   9.583
  175DIO     H9 9789   2.197   2.784   9.566
  175DIO    H10 9790   2.058   2.763   9.463
  175DIO    H11 9791   1.999   2.816   9.706
  175DIO    H12 9792   2.042   2.628   9.871
  175DIO    H13 9793   2.189   2.704   9.812
  175DIO    H14 9794   1.909   2.534   9.624
  175DIO    H15 9795   1.833   2.637   9.742
  175DIO    H16 9796   1.846   2.686   9.441
  175DIO    H17 9797   1.707   2.636   9.535
  175DIO    H18 9798   1.716   2.856   9.661
  175DIO    H19 9799   1.847   2.908   9.552
  175DIO    H20 9800   1.686   2.873   9.487
  176DIO     F1 9801   1.775   2.501   0.361
  176DIO     C1 9802   1.698   2.494   0.251
  176DIO     C2 9803   1.554   2.486   0.267
  176DIO     C3 9804   1.465   2.476   0.149
  176DIO     C4 9805   1.530   2.476   0.016
  176DIO     C5 9806   1.675   2.484   0.003
  176DIO     F2 9807   1.730   2.488  -0.119
  176DIO     C6 9808   1.758   2.493   0.120
  176DIO     F3 9809   1.892   2.499   0.108
  176DIO     C7 9810   1.318   2.467   0.162
  176DIO     C8 9811   1.241   2.362   0.092
  176DIO     C9 9812   1.097   2.353   0.105
  176DIO    C10 9813   1.024   2.455   0.179
  176DIO    C11 9814   1.097   2.555   0.255
  176DIO    C12 9815   1.241   2.562   0.244
  176DIO     F4 9816   1.306   2.659   0.311
  176DIO     O1 9817   0.892   2.427   0.206
  176DIO    C13 9818   0.797   2.529   0.211
  176DIO     O2 9819   0.796   2.647   0.167
  176DIO    C14 9820   0.668   2.484   0.264
  176DIO    C15 9821   0.602   2.361   0.214
  176DIO     F5 9822   0.665   2.283   0.125
  176DIO    C16 9823   0.471   2.319   0.261
  176DIO    C17 9824   0.395   2.401   0.355
  176DIO    C18 9825   0.464   2.512   0.418
  176DIO    C19 9826   0.596   2.554   0.373
  176DIO     F6 9827   0.658   2.649   0.446
  176DIO    C20 9828   0.255   2.364   0.395
  176DIO     O3 9829   0.185   2.286   0.297
  176DIO    C21 9830   0.141   2.364   0.186
  176DIO    C22 9831   0.052   2.479   0.232
  176DIO    C23 9832   0.133   2.559   0.334
  176DIO     O4 9833   0.177   2.475   0.441
  176DIO    C24 9834  -0.080   2.432   0.295
  176DIO    C25 9835  -0.171   2.348   0.205
  176DIO    C26 9836  -0.210   2.416   0.075
  176DIO     H1 9837   1.511   2.488   0.366
  176DIO     H2 9838   1.470   2.479  -0.074
  176DIO     H3 9839   1.293   2.286   0.034
  176DIO     H4 9840   1.042   2.271   0.060
  176DIO     H5 9841   1.042   2.627   0.314
  176DIO     H6 9842   0.433   2.223   0.226
  176DIO     H7 9843   0.421   2.563   0.504
  176DIO     H8 9844   0.264   2.298   0.482
  176DIO     H9 9845   0.228   2.402   0.131
  176DIO    H10 9846   0.088   2.298   0.117
  176DIO    H11 9847   0.030   2.544   0.147
  176DIO    H12 9848   0.072   2.639   0.378
  176DIO    H13 9849   0.219   2.608   0.287
  176DIO    H14 9850  -0.061   2.374   0.386
  176DIO    H15 9851  -0.137   2.520   0.327
  176DIO    H16 9852  -0.124   2.251   0.183
  176DIO    H17 9853  -0.263   2.324   0.260
  176DIO    H18 9854  -0.253   2.515   0.094
  176DIO    H19 9855  -0.123   2.429   0.009
  176DIO    H20 9856  -0.283   2.356   0.021
  177DIO     F1 9857   2.224   9.856   8.844
  177DIO     C1 9858   2.146   9.929   8.926
  177DIO     C2 9859   2.002   9.926   8.909
  177DIO     C3 9860   1.914  10.007   8.996
  177DIO     C4 9861   1.979  10.089   9.100
  177DIO     C5 9862   2.123  10.091   9.115
  177DIO     F2 9863   2.179  10.163   9.214
  177DIO     C6 9864   2.207  10.011   9.029
  177DIO     F3 9865   2.341  10.014   9.042
  177DIO     C7 9866   1.767  10.006   8.980
  177DIO     C8 9867   1.690  10.132   8.969
  177DIO     C9 9868   1.545  10.131   8.954
  177DIO    C10 9869   1.473  10.005   8.959
  177DIO    C11 9870   1.545   9.879   8.961
  177DIO    C12 9871   1.689   9.880   8.974
  177DIO     F4 9872   1.754   9.762   8.982
  177DIO     O1 9873   1.341  10.009   8.920
  177DIO    C13 9874   1.246   9.926   8.979
  177DIO     O2 9875   1.245   9.861   9.087
  177DIO    C14 9876   1.117   9.929   8.910
  177DIO    C15 9877   1.051  10.056   8.873
  177DIO     F5 9878   1.113  10.174   8.895
  177DIO    C16 9879   0.920  10.061   8.810
  177DIO    C17 9880   0.844   9.938   8.787
  177DIO    C18 9881   0.913   9.811   8.807
  177DIO    C19 9882   1.044   9.807   8.868
  177DIO     F6 9883   1.107   9.687   8.870
  177DIO    C20 9884   0.703   9.942   8.733
  177DIO     O3 9885   0.634  10.064   8.762
  177DIO    C21 9886   0.590  10.071   8.897
  177DIO    C22 9887   0.501   9.953   8.932
  177DIO    C23 9888   0.582   9.827   8.902
  177DIO     O4 9889   0.626   9.827   8.766
  177DIO    C24 9890   0.368   9.951   8.853
  177DIO    C25 9891   0.278  10.073   8.872
  177DIO    C26 9892   0.239  10.099   9.017
  177DIO     H1 9893   1.960   9.863   8.832
  177DIO     H2 9894   1.918  10.143   9.173
  177DIO     H3 9895   1.742  10.227   8.968
  177DIO     H4 9896   1.490  10.222   8.938
  177DIO     H5 9897   1.491   9.786   8.960
  177DIO     H6 9898   0.882  10.157   8.778
  177DIO     H7 9899   0.870   9.719   8.771
  177DIO     H8 9900   0.713   9.940   8.624
  177DIO     H9 9901   0.677  10.076   8.964
  177DIO    H10 9902   0.537  10.166   8.910
  177DIO    H11 9903   0.479   9.955   9.039
  177DIO    H12 9904   0.521   9.737   8.917
  177DIO    H13 9905   0.668   9.818   8.969
  177DIO    H14 9906   0.388   9.940   8.746
  177DIO    H15 9907   0.312   9.861   8.883
  177DIO    H16 9908   0.325  10.162   8.830
  177DIO    H17 9909   0.186  10.057   8.814
  177DIO    H18 9910   0.195  10.010   9.063
  177DIO    H19 9911   0.326  10.130   9.076
  177DIO    H20 9912   0.166  10.180   9.022
  178DIO     F1 9913   9.743   2.387  -0.321
  178DIO     C1 9914   9.665   2.465  -0.243
  178DIO     C2 9915   9.521   2.461  -0.259
  178DIO     C3 9916   9.432   2.546  -0.177
  178DIO     C4 9917   9.498   2.633  -0.076
  178DIO     C5 9918   9.642   2.635  -0.062
  178DIO     F2 9919   9.697   2.713   0.033
  178DIO     C6 9920   9.726   2.551  -0.144
  178DIO     F3 9921   9.859   2.555  -0.130
  178DIO     C7 9922   9.286   2.544  -0.193
  178DIO     C8 9923   9.209   2.669  -0.209
  178DIO     C9 9924   9.064   2.667  -0.224
  178DIO    C10 9925   8.991   2.542  -0.213
  178DIO    C11 9926   9.064   2.417  -0.205
  178DIO    C12 9927   9.208   2.418  -0.192
  178DIO     F4 9928   9.273   2.301  -0.179
  178DIO     O1 9929   8.859   2.545  -0.252
  178DIO    C13 9930   8.765   2.464  -0.189
  178DIO     O2 9931   8.764   2.404  -0.078
  178DIO    C14 9932   8.635   2.464  -0.259
  178DIO    C15 9933   8.569   2.589  -0.302
  178DIO     F5 9934   8.632   2.707  -0.286
  178DIO    C16 9935   8.438   2.591  -0.364
  178DIO    C17 9936   8.363   2.467  -0.381
  178DIO    C18 9937   8.431   2.341  -0.356
  178DIO    C19 9938   8.563   2.340  -0.294
  178DIO     F6 9939   8.625   2.220  -0.287
  178DIO    C20 9940   8.222   2.468  -0.436
  178DIO     O3 9941   8.152   2.591  -0.413
  178DIO    C21 9942   8.108   2.605  -0.279
  178DIO    C22 9943   8.020   2.489  -0.237
  178DIO    C23 9944   8.100   2.361  -0.262
  178DIO     O4 9945   8.145   2.354  -0.397
  178DIO    C24 9946   7.887   2.483  -0.316
  178DIO    C25 9947   7.796   2.606  -0.303
  178DIO    C26 9948   7.758   2.639  -0.160
  178DIO     H1 9949   9.478   2.394  -0.333
  178DIO     H2 9950   9.437   2.690  -0.007
  178DIO     H3 9951   9.260   2.764  -0.215
  178DIO     H4 9952   9.009   2.758  -0.245
  178DIO     H5 9953   9.009   2.323  -0.202
  178DIO     H6 9954   8.400   2.685  -0.401
  178DIO     H7 9955   8.388   2.247  -0.387
  178DIO     H8 9956   8.232   2.461  -0.545
  178DIO     H9 9957   8.195   2.613  -0.212
  178DIO    H10 9958   8.056   2.701  -0.270
  178DIO    H11 9959   7.997   2.496  -0.131
  178DIO    H12 9960   8.039   2.272  -0.243
  178DIO    H13 9961   8.186   2.356  -0.194
  178DIO    H14 9962   7.907   2.466  -0.423
  178DIO    H15 9963   7.830   2.395  -0.282
  178DIO    H16 9964   7.843   2.693  -0.350
  178DIO    H17 9965   7.704   2.587  -0.361
  178DIO    H18 9966   7.714   2.553  -0.110
  178DIO    H19 9967   7.844   2.673  -0.102
  178DIO    H20 9968   7.684   2.720  -0.159
  179DIO     F1 9969   2.653   5.839   5.637
  179DIO     C1 9970   2.575   5.941   5.595
  179DIO     C2 9971   2.431   5.924   5.592
  179DIO     C3 9972   2.343   6.032   5.545
  179DIO     C4 9973   2.408   6.158   5.502
  179DIO     C5 9974   2.552   6.173   5.506
  179DIO     F2 9975   2.608   6.290   5.470
  179DIO     C6 9976   2.636   6.065   5.552
  179DIO     F3 9977   2.770   6.079   5.554
  179DIO     C7 9978   2.196   6.017   5.540
  179DIO     C8 9979   2.119   6.049   5.418
  179DIO     C9 9980   1.974   6.034   5.414
  179DIO    C10 9981   1.902   5.997   5.534
  179DIO    C11 9982   1.974   5.957   5.654
  179DIO    C12 9983   2.118   5.970   5.657
  179DIO     F4 9984   2.183   5.937   5.771
  179DIO     O1 9985   1.770   5.962   5.517
  179DIO    C13 9986   1.675   5.990   5.615
  179DIO     O2 9987   1.674   6.070   5.713
  179DIO    C14 9988   1.546   5.925   5.590
  179DIO    C15 9989   1.480   5.933   5.458
  179DIO     F5 9990   1.542   5.993   5.354
  179DIO    C16 9991   1.349   5.876   5.432
  179DIO    C17 9992   1.273   5.813   5.540
  179DIO    C18 9993   1.342   5.789   5.666
  179DIO    C19 9994   1.473   5.845   5.691
  179DIO     F6 9995   1.536   5.807   5.804
  179DIO    C20 9996   1.132   5.763   5.518
  179DIO     O3 9997   1.063   5.831   5.413
  179DIO    C21 9998   1.019   5.961   5.451
  179DIO    C22 9999   0.930   5.954   5.575
  179DIO    C2310000   1.011   5.883   5.683
  179DIO     O410001   1.055   5.756   5.638
  179DIO    C2410002   0.797   5.879   5.550
  179DIO    C2510003   0.707   5.938   5.441
  179DIO    C2610004   0.668   6.083   5.465
  179DIO     H110005   2.389   5.830   5.626
  179DIO     H210006   2.347   6.244   5.476
  179DIO     H310007   2.171   6.079   5.328
  179DIO     H410008   1.919   6.050   5.323
  179DIO     H510009   1.920   5.924   5.741
  179DIO     H610010   1.311   5.877   5.331
  179DIO     H710011   1.299   5.724   5.742
  179DIO     H810012   1.142   5.659   5.483
  179DIO     H910013   1.106   6.025   5.469
  179DIO    H1010014   0.966   6.005   5.366
  179DIO    H1110015   0.908   6.056   5.609
  179DIO    H1210016   0.950   5.868   5.773
  179DIO    H1310017   1.097   5.944   5.714
  179DIO    H1410018   0.817   5.775   5.525
  179DIO    H1510019   0.741   5.878   5.644
  179DIO    H1610020   0.754   5.928   5.343
  179DIO    H1710021   0.615   5.878   5.437
  179DIO    H1810022   0.624   6.097   5.564
  179DIO    H1910023   0.755   6.149   5.455
  179DIO    H2010024   0.595   6.115   5.390
  180DIO     F110025   4.140   4.758   5.525
  180DIO     C110026   4.062   4.757   5.415
  180DIO     C210027   3.918   4.748   5.430
  180DIO     C310028   3.829   4.744   5.312
  180DIO     C410029   3.895   4.751   5.179
  180DIO     C510030   4.039   4.760   5.167
  180DIO     F210031   4.095   4.771   5.045
  180DIO     C610032   4.123   4.763   5.284
  180DIO     F310033   4.257   4.770   5.272
  180DIO     C710034   3.683   4.734   5.324
  180DIO     C810035   3.606   4.633   5.249
  180DIO     C910036   3.461   4.624   5.261
  180DIO    C1010037   3.389   4.721   5.340
  180DIO    C1110038   3.461   4.818   5.422
  180DIO    C1210039   3.605   4.825   5.411
  180DIO     F410040   3.670   4.919   5.483
  180DIO     O110041   3.256   4.692   5.367
  180DIO    C1310042   3.162   4.794   5.377
  180DIO     O210043   3.161   4.914   5.339
  180DIO    C1410044   3.033   4.746   5.428
  180DIO    C1510045   2.967   4.626   5.371
  180DIO     F510046   3.029   4.552   5.278
  180DIO    C1610047   2.836   4.581   5.415
  180DIO    C1710048   2.760   4.658   5.513
  180DIO    C1810049   2.829   4.767   5.583
  180DIO    C1910050   2.960   4.811   5.539
  180DIO     F610051   3.023   4.902   5.617
  180DIO    C2010052   2.619   4.619   5.552
  180DIO     O310053   2.550   4.547   5.450
  180DIO    C2110054   2.506   4.631   5.343
  180DIO    C2210055   2.417   4.743   5.395
  180DIO    C2310056   2.498   4.818   5.501
  180DIO     O410057   2.542   4.728   5.603
  180DIO    C2410058   2.284   4.692   5.456
  180DIO    C2510059   2.194   4.613   5.361
  180DIO    C2610060   2.155   4.689   5.235
  180DIO     H110061   3.876   4.745   5.529
  180DIO     H210062   3.834   4.759   5.089
  180DIO     H310063   3.657   4.560   5.188
  180DIO     H410064   3.406   4.544   5.213
  180DIO     H510065   3.407   4.886   5.485
  180DIO     H610066   2.798   4.488   5.376
  180DIO     H710067   2.786   4.813   5.671
  180DIO     H810068   2.629   4.549   5.635
  180DIO     H910069   2.593   4.671   5.290
  180DIO    H1010070   2.453   4.568   5.271
  180DIO    H1110071   2.394   4.812   5.313
  180DIO    H1210072   2.437   4.895   5.549
  180DIO    H1310073   2.584   4.869   5.456
  180DIO    H1410074   2.304   4.630   5.544
  180DIO    H1510075   2.228   4.779   5.492
  180DIO    H1610076   2.241   4.518   5.334
  180DIO    H1710077   2.102   4.587   5.415
  180DIO    H1810078   2.111   4.786   5.259
  180DIO    H1910079   2.242   4.705   5.170
  180DIO    H2010080   2.081   4.631   5.178
  181DIO     F110081   7.420   9.105   5.080
  181DIO     C110082   7.342   9.215   5.090
  181DIO     C210083   7.198   9.201   5.080
  181DIO     C310084   7.109   9.319   5.088
  181DIO     C410085   7.175   9.451   5.109
  181DIO     C510086   7.319   9.462   5.118
  181DIO     F210087   7.375   9.582   5.141
  181DIO     C610088   7.403   9.344   5.109
  181DIO     F310089   7.537   9.356   5.117
  181DIO     C710090   6.963   9.308   5.077
  181DIO     C810091   6.886   9.393   4.984
  181DIO     C910092   6.741   9.382   4.973
  181DIO    C1010093   6.669   9.293   5.062
  181DIO    C1110094   6.741   9.202   5.150
  181DIO    C1210095   6.885   9.212   5.158
  181DIO     F410096   6.950   9.130   5.244
  181DIO     O110097   6.536   9.270   5.031
  181DIO    C1310098   6.442   9.249   5.131
  181DIO     O210099   6.441   9.274   5.254
  181DIO    C1410100   6.313   9.204   5.078
  181DIO    C1510101   6.246   9.272   4.965
  181DIO     F510102   6.309   9.373   4.901
  181DIO    C1610103   6.116   9.233   4.915
  181DIO    C1710104   6.040   9.127   4.982
  181DIO    C1810105   6.109   9.047   5.083
  181DIO    C1910106   6.240   9.086   5.131
  181DIO     F610107   6.303   8.999   5.213
  181DIO    C2010108   5.899   9.093   4.939
  181DIO     O310109   5.829   9.202   4.878
  181DIO    C2110110   5.786   9.299   4.972
  181DIO    C2210111   5.697   9.236   5.078
  181DIO    C2310112   5.778   9.123   5.142
  181DIO     O410113   5.822   9.031   5.042
  181DIO    C2410114   5.564   9.181   5.022
  181DIO    C2510115   5.473   9.283   4.953
  181DIO    C2610116   5.435   9.401   5.041
  181DIO     H110117   7.156   9.102   5.066
  181DIO     H210118   7.114   9.539   5.125
  181DIO     H310119   6.937   9.461   4.918
  181DIO     H410120   6.686   9.438   4.899
  181DIO     H510121   6.687   9.133   5.212
  181DIO     H610122   6.078   9.281   4.826
  181DIO     H710123   6.066   8.955   5.119
  181DIO     H810124   5.909   9.017   4.861
  181DIO     H910125   5.872   9.348   5.018
  181DIO    H1010126   5.733   9.378   4.917
  181DIO    H1110127   5.674   9.311   5.156
  181DIO    H1210128   5.717   9.068   5.214
  181DIO    H1310129   5.864   9.163   5.197
  181DIO    H1410130   5.584   9.100   4.951
  181DIO    H1510131   5.508   9.136   5.104
  181DIO    H1610132   5.521   9.320   4.861
  181DIO    H1710133   5.382   9.232   4.921
  181DIO    H1810134   5.391   9.368   5.135
  181DIO    H1910135   5.522   9.464   5.063
  181DIO    H2010136   5.361   9.464   4.989
  182DIO     F110137   9.785   9.936   0.033
  182DIO     C110138   9.707   9.828   0.010
  182DIO     C210139   9.563   9.841   0.021
  182DIO     C310140   9.474   9.725  -0.001
  182DIO     C410141   9.540   9.597  -0.038
  182DIO     C510142   9.684   9.587  -0.049
  182DIO     F210143   9.739   9.470  -0.087
  182DIO     C610144   9.768   9.702  -0.026
  182DIO     F310145   9.901   9.692  -0.035
  182DIO     C710146   9.328   9.735   0.011
  182DIO     C810147   9.251   9.639   0.093
  182DIO     C910148   9.106   9.648   0.105
  182DIO    C1010149   9.033   9.748   0.027
  182DIO    C1110150   9.106   9.848  -0.048
  182DIO    C1210151   9.250   9.840  -0.058
  182DIO     F410152   9.315   9.931  -0.133
  182DIO     O110153   8.901   9.767   0.062
  182DIO    C1310154   8.807   9.800  -0.035
  182DIO     O210155   8.806   9.790  -0.161
  182DIO    C1410156   8.677   9.838   0.023
  182DIO    C1510157   8.611   9.756   0.127
  182DIO     F510158   8.674   9.648   0.178
  182DIO    C1610159   8.480   9.789   0.181
  182DIO    C1710160   8.405   9.902   0.128
  182DIO    C1810161   8.473   9.994   0.038
  182DIO    C1910162   8.605   9.962  -0.015
  182DIO     F610163   8.667  10.058  -0.086
  182DIO    C2010164   8.264   9.931   0.174
  182DIO     O310165   8.194   9.815   0.222
  182DIO    C2110166   8.150   9.730   0.117
  182DIO    C2210167   8.062   9.806   0.018
  182DIO    C2310168   8.142   9.926  -0.030
  182DIO     O410169   8.187  10.005   0.080
  182DIO    C2410170   7.929   9.853   0.081
  182DIO    C2510171   7.838   9.743   0.137
  182DIO    C2610172   7.800   9.637   0.036
  182DIO     H110173   9.520   9.937   0.047
  182DIO     H210174   9.479   9.511  -0.066
  182DIO     H310175   9.302   9.562   0.150
  182DIO     H410176   9.051   9.583   0.171
  182DIO     H510177   9.051   9.925  -0.101
  182DIO     H610178   8.442   9.730   0.263
  182DIO     H710179   8.430  10.090   0.013
  182DIO     H810180   8.274   9.996   0.262
  182DIO     H910181   8.237   9.687   0.065
  182DIO    H1010182   8.098   9.645   0.161
  182DIO    H1110183   8.039   9.741  -0.067
  182DIO    H1210184   8.081   9.990  -0.095
  182DIO    H1310185   8.228   9.894  -0.090
  182DIO    H1410186   7.949   9.925   0.162
  182DIO    H1510187   7.872   9.908   0.005
  182DIO    H1610188   7.885   9.695   0.224
  182DIO    H1710189   7.746   9.790   0.175
  182DIO    H1810190   7.756   9.682  -0.054
  182DIO    H1910191   7.886   9.577   0.005
  182DIO    H2010192   7.726   9.569   0.079
  183DIO     F110193   7.510   2.204   9.903
  183DIO     C110194   7.433   2.252  10.002
  183DIO     C210195   7.289   2.253   9.986
  183DIO     C310196   7.200   2.307  10.091
  183DIO     C410197   7.265   2.356  10.215
  183DIO     C510198   7.410   2.353  10.229
  183DIO     F210199   7.465   2.395  10.345
  183DIO     C610200   7.493   2.301  10.124
  183DIO     F310201   7.627   2.300  10.138
  183DIO     C710202   7.054   2.310  10.076
  183DIO     C810203   6.976   2.434  10.101
  183DIO     C910204   6.832   2.437  10.087
  183DIO    C1010205   6.759   2.315  10.056
  183DIO    C1110206   6.832   2.194  10.022
  183DIO    C1210207   6.976   2.191  10.035
  183DIO     F410208   7.041   2.076  10.008
  183DIO     O110209   6.627   2.331  10.020
  183DIO    C1310210   6.532   2.234  10.053
  183DIO     O210211   6.532   2.141  10.137
  183DIO    C1410212   6.403   2.256   9.987
  183DIO    C1510213   6.337   2.388   9.988
  183DIO     F510214   6.400   2.495  10.042
  183DIO    C1610215   6.206   2.411   9.929
  183DIO    C1710216   6.130   2.300   9.872
  183DIO    C1810217   6.199   2.173   9.855
  183DIO    C1910218   6.331   2.151   9.912
  183DIO     F610219   6.393   2.035   9.880
  183DIO    C2010220   5.990   2.319   9.821
  183DIO     O310221   5.920   2.428   9.883
  183DIO    C2110222   5.876   2.397  10.015
  183DIO    C2210223   5.787   2.273  10.015
  183DIO    C2310224   5.868   2.160   9.950
  183DIO     O410225   5.912   2.199   9.820
  183DIO    C2410226   5.655   2.293   9.939
  183DIO    C2510227   5.564   2.405   9.992
  183DIO    C2610228   5.526   2.389  10.138
  183DIO     H110229   7.246   2.215   9.894
  183DIO     H210230   7.205   2.387  10.299
  183DIO     H310231   7.028   2.525  10.127
  183DIO     H410232   6.777   2.529  10.097
  183DIO     H510233   6.777   2.105   9.994
  183DIO     H610234   6.168   2.512   9.925
  183DIO     H710235   6.156   2.094   9.794
  183DIO     H810236   5.999   2.348   9.716
  183DIO     H910237   5.963   2.382  10.080
  183DIO    H1010238   5.824   2.484  10.054
  183DIO    H1110239   5.765   2.244  10.118
  183DIO    H1210240   5.807   2.070   9.939
  183DIO    H1310241   5.954   2.133  10.012
  183DIO    H1410242   5.675   2.313   9.833
  183DIO    H1510243   5.598   2.199   9.942
  183DIO    H1610244   5.611   2.503   9.976
  183DIO    H1710245   5.472   2.406   9.931
  183DIO    H1810246   5.482   2.291  10.157
  183DIO    H1910247   5.612   2.402  10.204
  183DIO    H2010248   5.452   2.465  10.165
  184DIO     F110249   2.753   5.110   4.349
  184DIO     C110250   2.676   5.219   4.364
  184DIO     C210251   2.532   5.206   4.353
  184DIO     C310252   2.443   5.324   4.366
  184DIO     C410253   2.508   5.454   4.393
  184DIO     C510254   2.653   5.464   4.403
  184DIO     F210255   2.708   5.584   4.432
  184DIO     C610256   2.736   5.348   4.389
  184DIO     F310257   2.870   5.359   4.398
  184DIO     C710258   2.297   5.312   4.355
  184DIO     C810259   2.219   5.402   4.266
  184DIO     C910260   2.075   5.391   4.255
  184DIO    C1010261   2.002   5.298   4.340
  184DIO    C1110262   2.075   5.204   4.423
  184DIO    C1210263   2.219   5.213   4.432
  184DIO     F410264   2.284   5.128   4.514
  184DIO     O110265   1.870   5.277   4.307
  184DIO    C1310266   1.775   5.251   4.406
  184DIO     O210267   1.775   5.271   4.531
  184DIO    C1410268   1.646   5.208   4.351
  184DIO    C1510269   1.580   5.282   4.241
  184DIO     F510270   1.643   5.385   4.182
  184DIO    C1610271   1.449   5.245   4.190
  184DIO    C1710272   1.373   5.136   4.252
  184DIO    C1810273   1.442   5.052   4.349
  184DIO    C1910274   1.574   5.088   4.399
  184DIO     F610275   1.636   4.998   4.478
  184DIO    C2010276   1.233   5.104   4.208
  184DIO     O310277   1.163   5.216   4.151
  184DIO    C2110278   1.119   5.309   4.249
  184DIO    C2210279   1.030   5.241   4.353
  184DIO    C2310280   1.111   5.125   4.411
  184DIO     O410281   1.155   5.037   4.308
  184DIO    C2410282   0.898   5.189   4.294
  184DIO    C2510283   0.807   5.294   4.230
  184DIO    C2610284   0.769   5.408   4.323
  184DIO     H110285   2.489   5.108   4.335
  184DIO     H210286   2.448   5.541   4.414
  184DIO     H310287   2.271   5.473   4.203
  184DIO     H410288   2.020   5.450   4.183
  184DIO     H510289   2.020   5.131   4.482
  184DIO     H610290   1.411   5.297   4.103
  184DIO     H710291   1.399   4.958   4.382
  184DIO     H810292   1.242   5.032   4.126
  184DIO     H910293   1.206   5.355   4.298
  184DIO    H1010294   1.067   5.390   4.198
  184DIO    H1110295   1.008   5.312   4.434
  184DIO    H1210296   1.050   5.067   4.481
  184DIO    H1310297   1.197   5.162   4.468
  184DIO    H1410298   0.918   5.111   4.220
  184DIO    H1510299   0.841   5.140   4.375
  184DIO    H1610300   0.854   5.335   4.140
  184DIO    H1710301   0.715   5.244   4.196
  184DIO    H1810302   0.725   5.370   4.416
  184DIO    H1910303   0.855   5.470   4.348
  184DIO    H2010304   0.695   5.472   4.274
  185DIO     F110305   4.793   6.745   4.389
  185DIO     C110306   4.715   6.643   4.432
  185DIO     C210307   4.571   6.660   4.434
  185DIO     C310308   4.482   6.552   4.483
  185DIO     C410309   4.548   6.426   4.526
  185DIO     C510310   4.692   6.412   4.523
  185DIO     F210311   4.747   6.295   4.560
  185DIO     C610312   4.776   6.520   4.476
  185DIO     F310313   4.910   6.506   4.474
  185DIO     C710314   4.336   6.568   4.487
  185DIO     C810315   4.259   6.536   4.610
  185DIO     C910316   4.114   6.551   4.613
  185DIO    C1010317   4.041   6.587   4.493
  185DIO    C1110318   4.114   6.626   4.373
  185DIO    C1210319   4.258   6.614   4.370
  185DIO     F410320   4.323   6.645   4.256
  185DIO     O110321   3.909   6.623   4.510
  185DIO    C1310322   3.815   6.594   4.412
  185DIO     O210323   3.814   6.513   4.315
  185DIO    C1410324   3.686   6.659   4.437
  185DIO    C1510325   3.619   6.652   4.569
  185DIO     F510326   3.682   6.593   4.673
  185DIO    C1610327   3.489   6.710   4.594
  185DIO    C1710328   3.413   6.771   4.486
  185DIO    C1810329   3.482   6.794   4.360
  185DIO    C1910330   3.613   6.738   4.335
  185DIO     F610331   3.676   6.775   4.222
  185DIO    C2010332   3.272   6.822   4.508
  185DIO     O310333   3.202   6.755   4.613
  185DIO    C2110334   3.159   6.624   4.576
  185DIO    C2210335   3.070   6.630   4.452
  185DIO    C2310336   3.151   6.700   4.343
  185DIO     O410337   3.195   6.828   4.387
  185DIO    C2410338   2.937   6.705   4.476
  185DIO    C2510339   2.846   6.647   4.586
  185DIO    C2610340   2.808   6.502   4.563
  185DIO     H110341   4.528   6.754   4.400
  185DIO     H210342   4.487   6.341   4.554
  185DIO     H310343   4.310   6.507   4.700
  185DIO     H410344   4.059   6.536   4.705
  185DIO     H510345   4.060   6.658   4.286
  185DIO     H610346   3.450   6.709   4.696
  185DIO     H710347   3.439   6.859   4.284
  185DIO     H810348   3.282   6.926   4.541
  185DIO     H910349   3.245   6.560   4.558
  185DIO    H1010350   3.106   6.581   4.662
  185DIO    H1110351   3.047   6.528   4.419
  185DIO    H1210352   3.089   6.715   4.254
  185DIO    H1310353   3.237   6.639   4.313
  185DIO    H1410354   2.957   6.810   4.501
  185DIO    H1510355   2.881   6.706   4.382
  185DIO    H1610356   2.894   6.658   4.684
  185DIO    H1710357   2.755   6.708   4.589
  185DIO    H1810358   2.764   6.487   4.464
  185DIO    H1910359   2.894   6.436   4.573
  185DIO    H2010360   2.734   6.471   4.638
  186DIO     F110361   8.444   2.837   1.145
  186DIO     C110362   8.367   2.733   1.182
  186DIO     C210363   8.223   2.750   1.185
  186DIO     C310364   8.134   2.639   1.227
  186DIO     C410365   8.199   2.511   1.263
  186DIO     C510366   8.344   2.497   1.259
  186DIO     F210367   8.399   2.378   1.288
  186DIO     C610368   8.427   2.607   1.218
  186DIO     F310369   8.561   2.593   1.215
  186DIO     C710370   7.988   2.654   1.232
  186DIO     C810371   7.910   2.616   1.352
  186DIO     C910372   7.766   2.630   1.357
  186DIO    C1010373   7.693   2.674   1.239
  186DIO    C1110374   7.766   2.720   1.122
  186DIO    C1210375   7.910   2.708   1.118
  186DIO     F410376   7.975   2.746   1.006
  186DIO     O110377   7.561   2.708   1.258
  186DIO    C1310378   7.466   2.685   1.158
  186DIO     O210379   7.466   2.611   1.057
  186DIO    C1410380   7.337   2.748   1.187
  186DIO    C1510381   7.271   2.734   1.319
  186DIO     F510382   7.334   2.669   1.419
  186DIO    C1610383   7.140   2.790   1.347
  186DIO    C1710384   7.064   2.858   1.243
  186DIO    C1810385   7.133   2.888   1.118
  186DIO    C1910386   7.265   2.833   1.090
  186DIO     F610387   7.327   2.878   0.979
  186DIO    C2010388   6.924   2.907   1.268
  186DIO     O310389   6.854   2.833   1.369
  186DIO    C2110390   6.810   2.706   1.324
  186DIO    C2210391   6.721   2.718   1.201
  186DIO    C2310392   6.802   2.795   1.096
  186DIO     O410393   6.846   2.920   1.148
  186DIO    C2410394   6.589   2.792   1.229
  186DIO    C2510395   6.498   2.728   1.335
  186DIO    C2610396   6.460   2.584   1.304
  186DIO     H110397   8.180   2.845   1.156
  186DIO     H210398   8.139   2.424   1.285
  186DIO     H310399   7.962   2.581   1.441
  186DIO     H410400   7.711   2.610   1.448
  186DIO     H510401   7.711   2.757   1.036
  186DIO     H610402   7.102   2.783   1.449
  186DIO     H710403   7.090   2.957   1.046
  186DIO     H810404   6.933   3.009   1.307
  186DIO     H910405   6.897   2.642   1.303
  186DIO    H1010406   6.758   2.657   1.407
  186DIO    H1110407   6.699   2.619   1.162
  186DIO    H1210408   6.741   2.815   1.008
  186DIO    H1310409   6.888   2.736   1.062
  186DIO    H1410410   6.609   2.896   1.260
  186DIO    H1510411   6.532   2.799   1.135
  186DIO    H1610412   6.545   2.733   1.434
  186DIO    H1710413   6.406   2.788   1.342
  186DIO    H1810414   6.416   2.576   1.204
  186DIO    H1910415   6.546   2.518   1.310
  186DIO    H2010416   6.386   2.549   1.377
  187DIO     F110417   1.491   3.929   1.224
  187DIO     C110418   1.414   3.826   1.186
  187DIO     C210419   1.270   3.837   1.199
  187DIO     C310420   1.181   3.725   1.161
  187DIO     C410421   1.246   3.604   1.106
  187DIO     C510422   1.391   3.596   1.094
  187DIO     F210423   1.446   3.485   1.040
  187DIO     C610424   1.474   3.706   1.133
  187DIO     F310425   1.608   3.697   1.122
  187DIO     C710426   1.034   3.733   1.174
  187DIO     C810427   0.957   3.627   1.242
  187DIO     C910428   0.813   3.635   1.255
  187DIO    C1010429   0.740   3.744   1.192
  187DIO    C1110430   0.813   3.854   1.131
  187DIO    C1210431   0.957   3.847   1.121
  187DIO     F410432   1.022   3.948   1.059
  187DIO     O110433   0.608   3.758   1.229
  187DIO    C1310434   0.513   3.804   1.137
  187DIO     O210435   0.512   3.812   1.012
  187DIO    C1410436   0.384   3.834   1.200
  187DIO    C1510437   0.318   3.739   1.292
  187DIO     F510438   0.381   3.624   1.327
  187DIO    C1610439   0.187   3.763   1.350
  187DIO    C1710440   0.111   3.883   1.313
  187DIO    C1810441   0.180   3.986   1.237
  187DIO    C1910442   0.312   3.962   1.180
  187DIO     F610443   0.374   4.067   1.123
  187DIO    C2010444  -0.029   3.904   1.363
  187DIO     O310445  -0.099   3.783   1.394
  187DIO    C2110446  -0.143   3.714   1.278
  187DIO    C2210447  -0.232   3.803   1.191
  187DIO    C2310448  -0.151   3.928   1.160
  187DIO     O410449  -0.107   3.991   1.280
  187DIO    C2410450  -0.364   3.841   1.260
  187DIO    C2510451  -0.455   3.724   1.301
  187DIO    C2610452  -0.494   3.633   1.185
  187DIO     H110453   1.227   3.929   1.238
  187DIO     H210454   1.186   3.523   1.067
  187DIO     H310455   1.009   3.543   1.287
  187DIO     H410456   0.758   3.561   1.312
  187DIO     H510457   0.758   3.938   1.090
  187DIO     H610458   0.149   3.693   1.423
  187DIO     H710459   0.137   4.085   1.225
  187DIO     H810460  -0.020   3.957   1.459
  187DIO     H910461  -0.056   3.679   1.221
  187DIO    H1010462  -0.196   3.624   1.311
  187DIO    H1110463  -0.254   3.751   1.097
  187DIO    H1210464  -0.212   4.001   1.105
  187DIO    H1310465  -0.065   3.905   1.096
  187DIO    H1410466  -0.345   3.901   1.350
  187DIO    H1510467  -0.421   3.906   1.193
  187DIO    H1610468  -0.408   3.665   1.380
  187DIO    H1710469  -0.547   3.765   1.344
  187DIO    H1810470  -0.537   3.691   1.103
  187DIO    H1910471  -0.407   3.578   1.147
  187DIO    H2010472  -0.567   3.560   1.218
  188DIO     F110473   6.457   0.076   3.388
  188DIO     C110474   6.379  -0.034   3.384
  188DIO     C210475   6.235  -0.020   3.393
  188DIO     C310476   6.146  -0.138   3.391
  188DIO     C410477   6.212  -0.270   3.376
  188DIO     C510478   6.356  -0.282   3.367
  188DIO     F210479   6.411  -0.403   3.349
  188DIO     C610480   6.440  -0.164   3.370
  188DIO     F310481   6.573  -0.176   3.363
  188DIO     C710482   6.000  -0.126   3.401
  188DIO     C810483   5.923  -0.207   3.498
  188DIO     C910484   5.778  -0.195   3.508
  188DIO    C1010485   5.705  -0.111   3.415
  188DIO    C1110486   5.778  -0.024   3.323
  188DIO    C1210487   5.922  -0.034   3.315
  188DIO     F410488   5.987   0.043   3.226
  188DIO     O110489   5.573  -0.086   3.445
  188DIO    C1310490   5.479  -0.070   3.344
  188DIO     O210491   5.478  -0.101   3.222
  188DIO    C1410492   5.349  -0.022   3.395
  188DIO    C1510493   5.283  -0.085   3.511
  188DIO     F510494   5.346  -0.183   3.580
  188DIO    C1610495   5.152  -0.043   3.559
  188DIO    C1710496   5.077   0.059   3.487
  188DIO    C1810497   5.145   0.134   3.383
  188DIO    C1910498   5.277   0.093   3.337
  188DIO     F610499   5.339   0.176   3.250
  188DIO    C2010500   4.936   0.095   3.528
  188DIO     O310501   4.866  -0.011   3.595
  188DIO    C2110502   4.822  -0.113   3.506
  188DIO    C2210503   4.734  -0.055   3.396
  188DIO    C2310504   4.814   0.055   3.328
  188DIO     O410505   4.859   0.152   3.422
  188DIO    C2410506   4.601   0.003   3.450
  188DIO    C2510507   4.510  -0.096   3.524
  188DIO    C2610508   4.472  -0.218   3.442
  188DIO     H110509   6.192   0.080   3.402
  188DIO     H210510   6.151  -0.359   3.364
  188DIO     H310511   5.974  -0.272   3.567
  188DIO     H410512   5.723  -0.248   3.585
  188DIO     H510513   5.723   0.043   3.258
  188DIO     H610514   5.114  -0.088   3.650
  188DIO     H710515   5.102   0.224   3.342
  188DIO     H810516   4.946   0.175   3.603
  188DIO     H910517   4.909  -0.163   3.462
  188DIO    H1010518   4.770  -0.188   3.564
  188DIO    H1110519   4.711  -0.133   3.323
  188DIO    H1210520   4.753   0.107   3.253
  188DIO    H1310521   4.900   0.013   3.274
  188DIO    H1410522   4.621   0.087   3.517
  188DIO    H1510523   4.544   0.044   3.365
  188DIO    H1610524   4.557  -0.128   3.617
  188DIO    H1710525   4.418  -0.043   3.553
  188DIO    H1810526   4.428  -0.189   3.346
  188DIO    H1910527   4.558  -0.282   3.422
  188DIO    H2010528   4.398  -0.278   3.496
  189DIO     F110529   5.784   6.564  10.648
  189DIO     C110530   5.706   6.454  10.646
  189DIO     C210531   5.562   6.468  10.654
  189DIO     C310532   5.473   6.350  10.654
  189DIO     C410533   5.539   6.218  10.642
  189DIO     C510534   5.683   6.206  10.633
  189DIO     F210535   5.738   6.084  10.618
  189DIO     C610536   5.767   6.323  10.634
  189DIO     F310537   5.900   6.311  10.627
  189DIO     C710538   5.327   6.362  10.664
  189DIO     C810539   5.250   6.283  10.763
  189DIO     C910540   5.105   6.295  10.772
  189DIO    C1010541   5.032   6.378  10.678
  189DIO    C1110542   5.105   6.463  10.585
  189DIO    C1210543   5.249   6.453  10.577
  189DIO     F410544   5.314   6.528  10.486
  189DIO     O110545   4.900   6.403  10.708
  189DIO    C1310546   4.806   6.417  10.607
  189DIO     O210547   4.805   6.384  10.485
  189DIO    C1410548   4.677   6.466  10.656
  189DIO    C1510549   4.610   6.405  10.774
  189DIO     F510550   4.673   6.309  10.844
  189DIO    C1610551   4.479   6.447  10.821
  189DIO    C1710552   4.404   6.548  10.747
  189DIO    C1810553   4.472   6.622  10.642
  189DIO    C1910554   4.604   6.580  10.596
  189DIO     F610555   4.667   6.661  10.508
  189DIO    C2010556   4.263   6.585  10.788
  189DIO     O310557   4.193   6.481  10.856
  189DIO    C2110558   4.150   6.377  10.769
  189DIO    C2210559   4.061   6.433  10.658
  189DIO    C2310560   4.141   6.542  10.588
  189DIO     O410561   4.186   6.641  10.681
  189DIO    C2410562   3.928   6.492  10.711
  189DIO    C2510563   3.837   6.394  10.787
  189DIO    C2610564   3.799   6.271  10.707
  189DIO     H110565   5.519   6.568  10.662
  189DIO     H210566   5.478   6.128  10.631
  189DIO     H310567   5.301   6.219  10.833
  189DIO     H410568   5.050   6.244  10.850
  189DIO     H510569   5.050   6.528  10.518
  189DIO     H610570   4.441   6.405  10.913
  189DIO     H710571   4.430   6.711  10.599
  189DIO     H810572   4.273   6.666  10.861
  189DIO     H910573   4.236   6.326  10.726
  189DIO    H1010574   4.097   6.303  10.829
  189DIO    H1110575   4.038   6.354  10.586
  189DIO    H1210576   4.080   6.593  10.512
  189DIO    H1310577   4.228   6.499  10.535
  189DIO    H1410578   3.948   6.578  10.777
  189DIO    H1510579   3.871   6.532  10.626
  189DIO    H1610580   3.885   6.364  10.881
  189DIO    H1710581   3.745   6.448  10.815
  189DIO    H1810582   3.755   6.299  10.610
  189DIO    H1910583   3.885   6.207  10.688
  189DIO    H2010584   3.725   6.212  10.762
  190DIO     F110585  10.262   1.441   3.030
  190DIO     C110586  10.184   1.443   2.920
  190DIO     C210587  10.040   1.434   2.934
  190DIO     C310588   9.951   1.434   2.816
  190DIO     C410589  10.017   1.446   2.684
  190DIO     C510590  10.161   1.455   2.672
  190DIO     F210591  10.216   1.470   2.550
  190DIO     C610592  10.245   1.454   2.789
  190DIO     F310593  10.378   1.461   2.777
  190DIO     C710594   9.805   1.424   2.828
  190DIO     C810595   9.728   1.325   2.750
  190DIO     C910596   9.583   1.316   2.761
  190DIO    C1010597   9.510   1.411   2.844
  190DIO    C1110598   9.583   1.504   2.928
  190DIO    C1210599   9.727   1.512   2.918
  190DIO     F410600   9.792   1.603   2.994
  190DIO     O110601   9.378   1.381   2.869
  190DIO    C1310602   9.284   1.482   2.883
  190DIO     O210603   9.283   1.603   2.849
  190DIO    C1410604   9.154   1.432   2.932
  190DIO    C1510605   9.088   1.315   2.872
  190DIO     F510606   9.151   1.244   2.775
  190DIO    C1610607   8.957   1.268   2.914
  190DIO    C1710608   8.882   1.342   3.015
  190DIO    C1810609   8.950   1.448   3.088
  190DIO    C1910610   9.082   1.493   3.046
  190DIO     F610611   9.144   1.581   3.127
  190DIO    C2010612   8.741   1.301   3.052
  190DIO     O310613   8.671   1.232   2.947
  190DIO    C2110614   8.627   1.320   2.844
  190DIO    C2210615   8.539   1.430   2.899
  190DIO    C2310616   8.619   1.501   3.008
  190DIO     O410617   8.664   1.408   3.107
  190DIO    C2410618   8.406   1.378   2.958
  190DIO    C2510619   8.315   1.302   2.861
  190DIO    C2610620   8.277   1.382   2.737
  190DIO     H110621   9.997   1.427   3.034
  190DIO     H210622   9.956   1.457   2.594
  190DIO     H310623   9.779   1.255   2.686
  190DIO     H410624   9.528   1.238   2.710
  190DIO     H510625   9.528   1.571   2.994
  190DIO     H610626   8.919   1.176   2.872
  190DIO     H710627   8.907   1.490   3.177
  190DIO     H810628   8.751   1.228   3.133
  190DIO     H910629   8.714   1.362   2.792
  190DIO    H1010630   8.575   1.260   2.769
  190DIO    H1110631   8.516   1.502   2.820
  190DIO    H1210632   8.558   1.577   3.059
  190DIO    H1310633   8.705   1.554   2.965
  190DIO    H1410634   8.426   1.312   3.044
  190DIO    H1510635   8.349   1.463   2.998
  190DIO    H1610636   8.362   1.208   2.830
  190DIO    H1710637   8.223   1.274   2.914
  190DIO    H1810638   8.233   1.478   2.765
  190DIO    H1910639   8.363   1.400   2.673
  190DIO    H2010640   8.203   1.326   2.678
  191DIO     F110641   8.959   8.488   7.475
  191DIO     C110642   8.881   8.378   7.479
  191DIO     C210643   8.737   8.393   7.487
  191DIO     C310644   8.648   8.275   7.494
  191DIO     C410645   8.714   8.142   7.489
  191DIO     C510646   8.858   8.130   7.481
  191DIO     F210647   8.913   8.007   7.473
  191DIO     C610648   8.942   8.247   7.476
  191DIO     F310649   9.075   8.235   7.469
  191DIO     C710650   8.502   8.288   7.503
  191DIO     C810651   8.425   8.215   7.606
  191DIO     C910652   8.280   8.227   7.615
  191DIO    C1010653   8.207   8.304   7.516
  191DIO    C1110654   8.280   8.383   7.418
  191DIO    C1210655   8.424   8.373   7.411
  191DIO     F410656   8.489   8.443   7.315
  191DIO     O110657   8.075   8.331   7.544
  191DIO    C1310658   7.981   8.339   7.442
  191DIO     O210659   7.980   8.299   7.323
  191DIO    C1410660   7.851   8.391   7.489
  191DIO    C1510661   7.785   8.337   7.610
  191DIO     F510662   7.848   8.245   7.686
  191DIO    C1610663   7.654   8.382   7.654
  191DIO    C1710664   7.579   8.479   7.575
  191DIO    C1810665   7.647   8.545   7.465
  191DIO    C1910666   7.779   8.501   7.422
  191DIO     F610667   7.841   8.577   7.329
  191DIO    C2010668   7.438   8.518   7.613
  191DIO     O310669   7.368   8.418   7.688
  191DIO    C2110670   7.324   8.309   7.607
  191DIO    C2210671   7.236   8.358   7.493
  191DIO    C2310672   7.316   8.463   7.416
  191DIO     O410673   7.361   8.567   7.503
  191DIO    C2410674   7.103   8.420   7.542
  191DIO    C2510675   7.012   8.327   7.624
  191DIO    C2610676   6.974   8.199   7.551
  191DIO     H110677   8.694   8.493   7.488
  191DIO     H210678   8.653   8.052   7.484
  191DIO     H310679   8.476   8.155   7.680
  191DIO     H410680   8.225   8.181   7.696
  191DIO     H510681   8.225   8.445   7.348
  191DIO     H610682   7.616   8.345   7.749
  191DIO     H710683   7.604   8.632   7.417
  191DIO     H810684   7.448   8.603   7.682
  191DIO     H910685   7.411   8.255   7.567
  191DIO    H1010686   7.272   8.238   7.671
  191DIO    H1110687   7.213   8.275   7.426
  191DIO    H1210688   7.255   8.509   7.338
  191DIO    H1310689   7.402   8.417   7.366
  191DIO    H1410690   7.123   8.509   7.603
  191DIO    H1510691   7.046   8.455   7.455
  191DIO    H1610692   7.059   8.302   7.719
  191DIO    H1710693   6.920   8.382   7.649
  191DIO    H1810694   6.930   8.221   7.453
  191DIO    H1910695   7.060   8.134   7.537
  191DIO    H2010696   6.900   8.144   7.610
  192DIO     F110697  10.565   6.384  -0.041
  192DIO     C110698  10.488   6.439  -0.136
  192DIO     C210699  10.344   6.425  -0.128
  192DIO     C310700  10.255   6.482  -0.232
  192DIO     C410701  10.320   6.556  -0.342
  192DIO     C510702  10.465   6.569  -0.348
  192DIO     F210703  10.520   6.641  -0.448
  192DIO     C610704  10.548   6.512  -0.246
  192DIO     F310705  10.682   6.524  -0.253
  192DIO     C710706  10.108   6.467  -0.226
  192DIO     C810707  10.031   6.418  -0.342
  192DIO     C910708   9.887   6.404  -0.337
  192DIO    C1010709   9.814   6.447  -0.219
  192DIO    C1110710   9.887   6.488  -0.100
  192DIO    C1210711  10.031   6.500  -0.105
  192DIO     F410712  10.096   6.544   0.005
  192DIO     O110713   9.682   6.409  -0.211
  192DIO    C1310714   9.587   6.491  -0.150
  192DIO     O210715   9.586   6.614  -0.121
  192DIO    C1410716   9.458   6.424  -0.131
  192DIO    C1510717   9.392   6.350  -0.241
  192DIO     F510718   9.455   6.334  -0.359
  192DIO    C1610719   9.261   6.289  -0.226
  192DIO    C1710720   9.185   6.305  -0.102
  192DIO    C1810721   9.254   6.362   0.013
  192DIO    C1910722   9.386   6.422  -0.002
  192DIO     F610723   9.448   6.461   0.111
  192DIO    C2010724   9.045   6.251  -0.089
  192DIO     O310725   8.975   6.241  -0.214
  192DIO    C2110726   8.931   6.368  -0.263
  192DIO    C2210727   8.842   6.438  -0.161
  192DIO    C2310728   8.923   6.448  -0.031
  192DIO     O410729   8.967   6.319   0.011
  192DIO    C2410730   8.710   6.364  -0.134
  192DIO    C2510731   8.619   6.344  -0.256
  192DIO    C2610732   8.580   6.473  -0.326
  192DIO     H110733  10.301   6.371  -0.044
  192DIO     H210734  10.260   6.608  -0.415
  192DIO     H310735  10.083   6.387  -0.432
  192DIO     H410736   9.832   6.360  -0.419
  192DIO     H510737   9.832   6.515  -0.010
  192DIO     H610738   9.223   6.228  -0.307
  192DIO     H710739   9.211   6.357   0.112
  192DIO     H810740   9.054   6.148  -0.053
  192DIO     H910741   9.018   6.430  -0.287
  192DIO    H1010742   8.878   6.351  -0.357
  192DIO    H1110743   8.820   6.539  -0.196
  192DIO    H1210744   8.862   6.490   0.049
  192DIO    H1310745   9.009   6.514  -0.044
  192DIO    H1410746   8.729   6.265  -0.091
  192DIO    H1510747   8.653   6.419  -0.059
  192DIO    H1610748   8.666   6.276  -0.328
  192DIO    H1710749   8.527   6.293  -0.223
  192DIO    H1810750   8.537   6.544  -0.256
  192DIO    H1910751   8.667   6.520  -0.374
  192DIO    H2010752   8.507   6.453  -0.405
  193DIO     F110753   3.929   3.671  -0.820
  193DIO     C110754   3.852   3.566  -0.787
  193DIO     C210755   3.708   3.583  -0.783
  193DIO     C310756   3.619   3.471  -0.745
  193DIO     C410757   3.684   3.341  -0.713
  193DIO     C510758   3.829   3.328  -0.718
  193DIO     F210759   3.884   3.207  -0.693
  193DIO     C610760   3.912   3.439  -0.755
  193DIO     F310761   4.046   3.425  -0.758
  193DIO     C710762   3.472   3.486  -0.739
  193DIO     C810763   3.395   3.443  -0.620
  193DIO     C910764   3.251   3.457  -0.615
  193DIO    C1010765   3.178   3.505  -0.731
  193DIO    C1110766   3.250   3.555  -0.847
  193DIO    C1210767   3.395   3.543  -0.851
  193DIO     F410768   3.459   3.585  -0.961
  193DIO     O110769   3.046   3.538  -0.711
  193DIO    C1310770   2.951   3.519  -0.811
  193DIO     O210771   2.950   3.448  -0.915
  193DIO    C1410772   2.822   3.581  -0.780
  193DIO    C1510773   2.756   3.562  -0.649
  193DIO     F510774   2.818   3.494  -0.551
  193DIO    C1610775   2.625   3.617  -0.619
  193DIO    C1710776   2.549   3.689  -0.721
  193DIO    C1810777   2.618   3.724  -0.845
  193DIO    C1910778   2.750   3.670  -0.874
  193DIO     F610779   2.812   3.718  -0.984
  193DIO    C2010780   2.409   3.737  -0.695
  193DIO     O310781   2.339   3.660  -0.596
  193DIO    C2110782   2.295   3.534  -0.645
  193DIO    C2210783   2.206   3.551  -0.768
  193DIO    C2310784   2.287   3.631  -0.870
  193DIO     O410785   2.331   3.754  -0.814
  193DIO    C2410786   2.073   3.624  -0.737
  193DIO    C2510787   1.983   3.556  -0.634
  193DIO    C2610788   1.944   3.413  -0.669
  193DIO     H110789   3.665   3.679  -0.808
  193DIO     H210790   3.624   3.253  -0.695
  193DIO     H310791   3.447   3.405  -0.533
  193DIO     H410792   3.195   3.434  -0.525
  193DIO     H510793   3.196   3.595  -0.931
  193DIO     H610794   2.587   3.607  -0.518
  193DIO     H710795   2.575   3.795  -0.914
  193DIO     H810796   2.418   3.837  -0.651
  193DIO     H910797   2.382   3.471  -0.669
  193DIO    H1010798   2.242   3.483  -0.564
  193DIO    H1110799   2.184   3.453  -0.810
  193DIO    H1210800   2.226   3.654  -0.958
  193DIO    H1310801   2.373   3.573  -0.906
  193DIO    H1410802   2.093   3.726  -0.703
  193DIO    H1510803   2.017   3.633  -0.831
  193DIO    H1610804   2.030   3.557  -0.535
  193DIO    H1710805   1.891   3.615  -0.624
  193DIO    H1810806   1.900   3.408  -0.769
  193DIO    H1910807   2.031   3.346  -0.666
  193DIO    H2010808   1.871   3.375  -0.598
  194DIO     F110809   7.005   2.143   6.521
  194DIO     C110810   6.928   2.216   6.603
  194DIO     C210811   6.783   2.213   6.587
  194DIO     C310812   6.695   2.293   6.674
  194DIO     C410813   6.760   2.374   6.779
  194DIO     C510814   6.904   2.376   6.794
  194DIO     F210815   6.960   2.447   6.894
  194DIO     C610816   6.988   2.297   6.707
  194DIO     F310817   7.122   2.300   6.721
  194DIO     C710818   6.548   2.292   6.658
  194DIO     C810819   6.471   2.418   6.649
  194DIO     C910820   6.326   2.417   6.634
  194DIO    C1010821   6.254   2.292   6.637
  194DIO    C1110822   6.326   2.166   6.638
  194DIO    C1210823   6.470   2.167   6.651
  194DIO     F410824   6.535   2.049   6.657
  194DIO     O110825   6.122   2.297   6.598
  194DIO    C1310826   6.027   2.213   6.657
  194DIO     O210827   6.026   2.146   6.764
  194DIO    C1410828   5.898   2.216   6.587
  194DIO    C1510829   5.832   2.343   6.552
  194DIO     F510830   5.894   2.461   6.575
  194DIO    C1610831   5.701   2.349   6.489
  194DIO    C1710832   5.625   2.227   6.465
  194DIO    C1810833   5.694   2.099   6.483
  194DIO    C1910834   5.826   2.094   6.544
  194DIO     F610835   5.888   1.974   6.545
  194DIO    C2010836   5.484   2.231   6.410
  194DIO     O310837   5.415   2.353   6.441
  194DIO    C2110838   5.371   2.359   6.576
  194DIO    C2210839   5.282   2.240   6.610
  194DIO    C2310840   5.363   2.114   6.578
  194DIO     O410841   5.407   2.115   6.443
  194DIO    C2410842   5.149   2.239   6.531
  194DIO    C2510843   5.059   2.360   6.551
  194DIO    C2610844   5.020   2.385   6.696
  194DIO     H110845   6.741   2.151   6.509
  194DIO     H210846   6.700   2.427   6.852
  194DIO     H310847   6.523   2.513   6.648
  194DIO     H410848   6.271   2.509   6.619
  194DIO     H510849   6.272   2.072   6.635
  194DIO     H610850   5.663   2.445   6.458
  194DIO     H710851   5.651   2.007   6.446
  194DIO     H810852   5.494   2.230   6.301
  194DIO     H910853   5.458   2.362   6.643
  194DIO    H1010854   5.318   2.453   6.590
  194DIO    H1110855   5.260   2.240   6.717
  194DIO    H1210856   5.302   2.024   6.592
  194DIO    H1310857   5.449   2.104   6.645
  194DIO    H1410858   5.169   2.229   6.424
  194DIO    H1510859   5.093   2.149   6.560
  194DIO    H1610860   5.106   2.450   6.510
  194DIO    H1710861   4.967   2.345   6.493
  194DIO    H1810862   4.976   2.296   6.741
  194DIO    H1910863   5.107   2.416   6.756
  194DIO    H2010864   4.947   2.466   6.702
  195DIO     F110865  10.580   7.006   1.761
  195DIO     C110866  10.503   7.112   1.732
  195DIO     C210867  10.359   7.096   1.728
  195DIO     C310868  10.270   7.210   1.695
  195DIO     C410869  10.335   7.340   1.669
  195DIO     C510870  10.480   7.354   1.674
  195DIO     F210871  10.535   7.475   1.654
  195DIO     C610872  10.563   7.241   1.706
  195DIO     F310873  10.697   7.254   1.710
  195DIO     C710874  10.123   7.195   1.688
  195DIO     C810875  10.046   7.242   1.572
  195DIO     C910876   9.902   7.228   1.566
  195DIO    C1010877   9.829   7.176   1.680
  195DIO    C1110878   9.901   7.121   1.793
  195DIO    C1210879  10.046   7.133   1.798
  195DIO     F410880  10.110   7.086   1.906
  195DIO     O110881   9.697   7.143   1.658
  195DIO    C1310882   9.602   7.158   1.759
  195DIO     O210883   9.601   7.225   1.866
  195DIO    C1410884   9.473   7.098   1.725
  195DIO    C1510885   9.407   7.122   1.595
  195DIO     F510886   9.469   7.195   1.500
  195DIO    C1610887   9.276   7.069   1.563
  195DIO    C1710888   9.200   6.993   1.662
  195DIO    C1810889   9.269   6.953   1.784
  195DIO    C1910890   9.401   7.005   1.816
  195DIO     F610891   9.463   6.952   1.923
  195DIO    C2010892   9.060   6.946   1.633
  195DIO     O310893   8.990   7.027   1.538
  195DIO    C2110894   8.946   7.151   1.592
  195DIO    C2210895   8.857   7.128   1.714
  195DIO    C2310896   8.938   7.044   1.813
  195DIO     O410897   8.982   6.923   1.752
  195DIO    C2410898   8.724   7.057   1.680
  195DIO    C2510899   8.634   7.129   1.580
  195DIO    C2610900   8.595   7.270   1.622
  195DIO     H110901  10.316   6.999   1.749
  195DIO     H210902  10.275   7.429   1.654
  195DIO     H310903  10.098   7.284   1.486
  195DIO     H410904   9.846   7.256   1.477
  195DIO     H510905   9.847   7.077   1.875
  195DIO     H610906   9.238   7.083   1.462
  195DIO     H710907   9.226   6.879   1.850
  195DIO     H810908   9.069   6.847   1.586
  195DIO     H910909   9.033   7.212   1.619
  195DIO    H1010910   8.893   7.205   1.514
  195DIO    H1110911   8.835   7.225   1.761
  195DIO    H1210912   8.877   7.017   1.900
  195DIO    H1310913   9.024   7.100   1.851
  195DIO    H1410914   8.744   6.956   1.642
  195DIO    H1510915   8.668   7.043   1.773
  195DIO    H1610916   8.681   7.132   1.481
  195DIO    H1710917   8.542   7.070   1.568
  195DIO    H1810918   8.551   7.271   1.722
  195DIO    H1910919   8.682   7.337   1.621
  195DIO    H2010920   8.522   7.311   1.552
  196DIO     F110921   1.532   9.488   5.499
  196DIO     C110922   1.454   9.472   5.390
  196DIO     C210923   1.310   9.465   5.405
  196DIO     C310924   1.221   9.446   5.289
  196DIO     C410925   1.287   9.436   5.156
  196DIO     C510926   1.431   9.442   5.143
  196DIO     F210927   1.487   9.437   5.020
  196DIO     C610928   1.515   9.461   5.259
  196DIO     F310929   1.649   9.466   5.246
  196DIO     C710930   1.075   9.438   5.303
  196DIO     C810931   0.998   9.327   5.241
  196DIO     C910932   0.853   9.320   5.255
  196DIO    C1010933   0.781   9.427   5.320
  196DIO    C1110934   0.853   9.533   5.388
  196DIO    C1210935   0.997   9.539   5.377
  196DIO     F410936   1.062   9.641   5.436
  196DIO     O110937   0.648   9.402   5.350
  196DIO    C1310938   0.554   9.504   5.347
  196DIO     O210939   0.553   9.618   5.294
  196DIO    C1410940   0.425   9.463   5.404
  196DIO    C1510941   0.358   9.337   5.363
  196DIO     F510942   0.421   9.251   5.280
  196DIO    C1610943   0.228   9.298   5.413
  196DIO    C1710944   0.152   9.387   5.500
  196DIO    C1810945   0.221   9.504   5.554
  196DIO    C1910946   0.352   9.542   5.506
  196DIO     F610947   0.415   9.642   5.571
  196DIO    C2010948   0.011   9.354   5.543
  196DIO     O310949  -0.059   9.268   5.452
  196DIO    C2110950  -0.102   9.337   5.335
  196DIO    C2210951  -0.191   9.456   5.372
  196DIO    C2310952  -0.110   9.544   5.467
  196DIO     O410953  -0.066   9.469   5.580
  196DIO    C2410954  -0.324   9.414   5.438
  196DIO    C2510955  -0.415   9.322   5.355
  196DIO    C2610956  -0.453   9.381   5.220
  196DIO     H110957   1.268   9.475   5.505
  196DIO     H210958   1.226   9.431   5.066
  196DIO     H310959   1.049   9.247   5.190
  196DIO     H410960   0.798   9.235   5.217
  196DIO     H510961   0.799   9.610   5.441
  196DIO     H610962   0.190   9.200   5.386
  196DIO     H710963   0.178   9.561   5.636
  196DIO     H810964   0.021   9.295   5.635
  196DIO     H910965  -0.016   9.371   5.277
  196DIO    H1010966  -0.155   9.266   5.272
  196DIO    H1110967  -0.214   9.514   5.281
  196DIO    H1210968  -0.171   9.626   5.504
  196DIO    H1310969  -0.024   9.588   5.416
  196DIO    H1410970  -0.304   9.363   5.534
  196DIO    H1510971  -0.380   9.504   5.463
  196DIO    H1610972  -0.367   9.225   5.341
  196DIO    H1710973  -0.506   9.304   5.412
  196DIO    H1810974  -0.497   9.480   5.231
  196DIO    H1910975  -0.366   9.388   5.153
  196DIO    H2010976  -0.527   9.316   5.171
  197DIO     F110977   2.281   3.498   6.367
  197DIO     C110978   2.203   3.391   6.393
  197DIO     C210979   2.059   3.408   6.398
  197DIO     C310980   1.970   3.293   6.428
  197DIO     C410981   2.036   3.162   6.450
  197DIO     C510982   2.180   3.148   6.445
  197DIO     F210983   2.235   3.027   6.461
  197DIO     C610984   2.264   3.262   6.416
  197DIO     F310985   2.397   3.249   6.412
  197DIO     C710986   1.824   3.308   6.435
  197DIO     C810987   1.747   3.257   6.550
  197DIO     C910988   1.602   3.270   6.556
  197DIO    C1010989   1.529   3.326   6.444
  197DIO    C1110990   1.602   3.384   6.332
  197DIO    C1210991   1.746   3.373   6.327
  197DIO     F410992   1.811   3.422   6.220
  197DIO     O110993   1.397   3.358   6.466
  197DIO    C1310994   1.303   3.346   6.365
  197DIO     O210995   1.302   3.282   6.256
  197DIO    C1410996   1.174   3.406   6.400
  197DIO    C1510997   1.107   3.377   6.529
  197DIO     F510998   1.170   3.302   6.622
  197DIO    C1610999   0.976   3.430   6.564
  197DIO    C1711000   0.901   3.509   6.467
  197DIO    C1811001   0.969   3.552   6.346
  197DIO    C1911002   1.101   3.501   6.313
  197DIO     F611003   1.164   3.556   6.207
  197DIO    C2011004   0.760   3.555   6.497
  197DIO     O311005   0.690   3.471   6.590
  197DIO    C2111006   0.647   3.349   6.532
  197DIO    C2211007   0.558   3.375   6.410
  197DIO    C2311008   0.638   3.462   6.314
  197DIO     O411009   0.683   3.581   6.379
  197DIO    C2411010   0.425   3.445   6.446
  197DIO    C2511011   0.334   3.370   6.545
  197DIO    C2611012   0.296   3.230   6.499
  197DIO     H111013   2.016   3.505   6.379
  197DIO     H211014   1.975   3.073   6.463
  197DIO     H311015   1.798   3.213   6.634
  197DIO     H411016   1.547   3.241   6.645
  197DIO     H511017   1.547   3.430   6.251
  197DIO     H611018   0.938   3.413   6.664
  197DIO     H711019   0.927   3.628   6.282
  197DIO     H811020   0.770   3.652   6.547
  197DIO     H911021   0.733   3.288   6.504
  197DIO    H1011022   0.594   3.292   6.609
  197DIO    H1111023   0.535   3.280   6.361
  197DIO    H1211024   0.577   3.491   6.228
  197DIO    H1311025   0.725   3.407   6.275
  197DIO    H1411026   0.445   3.545   6.488
  197DIO    H1511027   0.368   3.461   6.354
  197DIO    H1611028   0.382   3.365   6.643
  197DIO    H1711029   0.242   3.429   6.558
  197DIO    H1811030   0.252   3.232   6.399
  197DIO    H1911031   0.382   3.163   6.498
  197DIO    H2011032   0.222   3.187   6.568
  198DIO     F111033   1.301   1.698   9.135
  198DIO     C111034   1.224   1.592   9.165
  198DIO     C211035   1.080   1.608   9.169
  198DIO     C311036   0.991   1.495   9.203
  198DIO     C411037   1.056   1.364   9.230
  198DIO     C511038   1.201   1.351   9.225
  198DIO     F211039   1.256   1.230   9.246
  198DIO     C611040   1.284   1.464   9.192
  198DIO     F311041   1.418   1.450   9.189
  198DIO     C711042   0.844   1.509   9.209
  198DIO     C811043   0.767   1.463   9.327
  198DIO     C911044   0.623   1.477   9.332
  198DIO    C1011045   0.550   1.528   9.218
  198DIO    C1111046   0.623   1.582   9.104
  198DIO    C1211047   0.767   1.570   9.099
  198DIO     F411048   0.832   1.616   8.990
  198DIO     O111049   0.418   1.561   9.239
  198DIO    C1311050   0.323   1.545   9.138
  198DIO     O211051   0.322   1.478   9.032
  198DIO    C1411052   0.194   1.606   9.171
  198DIO    C1511053   0.128   1.583   9.302
  198DIO     F511054   0.191   1.511   9.397
  198DIO    C1611055  -0.003   1.637   9.334
  198DIO    C1711056  -0.079   1.712   9.234
  198DIO    C1811057  -0.010   1.751   9.112
  198DIO    C1911058   0.122   1.698   9.080
  198DIO     F611059   0.184   1.750   8.973
  198DIO    C2011060  -0.219   1.759   9.262
  198DIO     O311061  -0.289   1.679   9.358
  198DIO    C2111062  -0.333   1.554   9.305
  198DIO    C2211063  -0.422   1.576   9.183
  198DIO    C2311064  -0.341   1.659   9.083
  198DIO     O411065  -0.297   1.780   9.144
  198DIO    C2411066  -0.554   1.647   9.216
  198DIO    C2511067  -0.645   1.576   9.317
  198DIO    C2611068  -0.684   1.435   9.276
  198DIO     H111069   1.037   1.705   9.147
  198DIO     H211070   0.996   1.276   9.246
  198DIO     H311071   0.819   1.422   9.412
  198DIO     H411072   0.568   1.450   9.421
  198DIO     H511073   0.568   1.625   9.021
  198DIO     H611074  -0.041   1.623   9.434
  198DIO     H711075  -0.053   1.824   9.045
  198DIO     H811076  -0.210   1.858   9.309
  198DIO     H911077  -0.246   1.493   9.279
  198DIO    H1011078  -0.386   1.500   9.384
  198DIO    H1111079  -0.444   1.479   9.137
  198DIO    H1211080  -0.402   1.686   8.997
  198DIO    H1311081  -0.255   1.603   9.046
  198DIO    H1411082  -0.535   1.748   9.254
  198DIO    H1511083  -0.611   1.660   9.123
  198DIO    H1611084  -0.598   1.574   9.416
  198DIO    H1711085  -0.737   1.635   9.328
  198DIO    H1811086  -0.727   1.433   9.176
  198DIO    H1911087  -0.597   1.368   9.278
  198DIO    H2011088  -0.757   1.394   9.347
  199DIO     F111089   2.994   2.786   8.249
  199DIO     C111090   2.917   2.745   8.352
  199DIO     C211091   2.773   2.759   8.341
  199DIO     C311092   2.684   2.718   8.452
  199DIO     C411093   2.749   2.661   8.572
  199DIO     C511094   2.894   2.648   8.580
  199DIO     F211095   2.949   2.592   8.689
  199DIO     C611096   2.977   2.690   8.470
  199DIO     F311097   3.111   2.679   8.479
  199DIO     C711098   2.537   2.732   8.444
  199DIO     C811099   2.460   2.797   8.552
  199DIO     C911100   2.316   2.810   8.545
  199DIO    C1011101   2.243   2.750   8.434
  199DIO    C1111102   2.315   2.691   8.323
  199DIO    C1211103   2.460   2.681   8.329
  199DIO     F411104   2.524   2.621   8.227
  199DIO     O111105   2.111   2.787   8.421
  199DIO    C1311106   2.016   2.696   8.373
  199DIO     O211107   2.015   2.571   8.362
  199DIO    C1411108   1.887   2.760   8.344
  199DIO    C1511109   1.821   2.849   8.442
  199DIO     F511110   1.883   2.882   8.557
  199DIO    C1611111   1.690   2.908   8.418
  199DIO    C1711112   1.614   2.874   8.298
  199DIO    C1811113   1.683   2.800   8.193
  199DIO    C1911114   1.815   2.743   8.216
  199DIO     F611115   1.877   2.688   8.110
  199DIO    C2011116   1.474   2.924   8.277
  199DIO     O311117   1.404   2.953   8.399
  199DIO    C2111118   1.360   2.835   8.466
  199DIO    C2211119   1.271   2.750   8.375
  199DIO    C2311120   1.352   2.722   8.249
  199DIO     O411121   1.396   2.843   8.189
  199DIO    C2411122   1.138   2.820   8.339
  199DIO    C2511123   1.048   2.858   8.456
  199DIO    C2611124   1.009   2.740   8.544
  199DIO     H111125   2.730   2.800   8.250
  199DIO     H211126   2.689   2.620   8.653
  199DIO     H311127   2.512   2.841   8.637
  199DIO     H411128   2.260   2.865   8.619
  199DIO     H511129   2.261   2.652   8.238
  199DIO     H611130   1.652   2.979   8.490
  199DIO     H711131   1.640   2.790   8.094
  199DIO     H811132   1.483   3.021   8.227
  199DIO     H911133   1.447   2.777   8.500
  199DIO    H1011134   1.307   2.865   8.557
  199DIO    H1111135   1.249   2.655   8.425
  199DIO    H1211136   1.291   2.668   8.175
  199DIO    H1311137   1.438   2.657   8.271
  199DIO    H1411138   1.158   2.911   8.281
  199DIO    H1511139   1.082   2.754   8.272
  199DIO    H1611140   1.095   2.935   8.517
  199DIO    H1711141   0.956   2.902   8.416
  199DIO    H1811142   0.965   2.659   8.485
  199DIO    H1911143   1.096   2.700   8.599
  199DIO    H2011144   0.936   2.772   8.619
  200DIO     F111145   8.220   3.683   7.975
  200DIO     C111146   8.143   3.688   8.084
  200DIO     C211147   7.999   3.696   8.069
  200DIO     C311148   7.910   3.704   8.188
  200DIO     C411149   7.975   3.701   8.321
  200DIO     C511150   8.120   3.693   8.333
  200DIO     F211151   8.175   3.686   8.455
  200DIO     C611152   8.203   3.686   8.215
  200DIO     F311153   8.337   3.679   8.228
  200DIO     C711154   7.763   3.713   8.175
  200DIO     C811155   7.686   3.817   8.247
  200DIO     C911156   7.542   3.826   8.234
  200DIO    C1011157   7.469   3.726   8.158
  200DIO    C1111158   7.541   3.627   8.080
  200DIO    C1211159   7.686   3.620   8.090
  200DIO     F411160   7.750   3.524   8.021
  200DIO     O111161   7.337   3.754   8.131
  200DIO    C1311162   7.242   3.652   8.124
  200DIO     O211163   7.241   3.533   8.165
  200DIO    C1411164   7.113   3.698   8.072
  200DIO    C1511165   7.047   3.820   8.124
  200DIO     F511166   7.109   3.897   8.216
  200DIO    C1611167   6.916   3.863   8.079
  200DIO    C1711168   6.840   3.783   7.983
  200DIO    C1811169   6.909   3.673   7.917
  200DIO    C1911170   7.041   3.630   7.962
  200DIO     F611171   7.103   3.537   7.887
  200DIO    C2011172   6.700   3.821   7.944
  200DIO     O311173   6.630   3.897   8.043
  200DIO    C2111174   6.586   3.816   8.153
  200DIO    C2211175   6.497   3.702   8.104
  200DIO    C2311176   6.578   3.624   8.000
  200DIO     O411177   6.622   3.711   7.896
  200DIO    C2411178   6.364   3.751   8.042
  200DIO    C2511179   6.274   3.833   8.134
  200DIO    C2611180   6.235   3.762   8.263
  200DIO     H111181   7.956   3.696   7.970
  200DIO     H211182   7.915   3.696   8.410
  200DIO     H311183   7.738   3.891   8.306
  200DIO     H411184   7.486   3.907   8.280
  200DIO     H511185   7.487   3.556   8.019
  200DIO     H611186   6.878   3.958   8.115
  200DIO     H711187   6.866   3.624   7.831
  200DIO     H811188   6.709   3.889   7.858
  200DIO     H911189   6.673   3.777   8.207
  200DIO    H1011190   6.533   3.881   8.223
  200DIO    H1111191   6.475   3.636   8.188
  200DIO    H1211192   6.517   3.546   7.955
  200DIO    H1311193   6.664   3.575   8.047
  200DIO    H1411194   6.384   3.811   7.952
  200DIO    H1511195   6.308   3.663   8.008
  200DIO    H1611196   6.321   3.929   8.158
  200DIO    H1711197   6.182   3.858   8.079
  200DIO    H1811198   6.191   3.664   8.242
  200DIO    H1911199   6.322   3.748   8.328
  200DIO    H2011200   6.162   3.821   8.318
  201DIO     F111201   6.371   7.888   1.735
  201DIO     C111202   6.293   7.837   1.833
  201DIO     C211203   6.149   7.851   1.824
  201DIO     C311204   6.060   7.799   1.930
  201DIO     C411205   6.126   7.729   2.043
  201DIO     C511206   6.270   7.716   2.050
  201DIO     F211207   6.326   7.649   2.152
  201DIO     C611208   6.354   7.769   1.945
  201DIO     F311209   6.488   7.758   1.953
  201DIO     C711210   5.914   7.813   1.923
  201DIO     C811211   5.837   7.867   2.038
  201DIO     C911212   5.692   7.881   2.031
  201DIO    C1011213   5.620   7.833   1.915
  201DIO    C1111214   5.692   7.786   1.798
  201DIO    C1211215   5.836   7.775   1.804
  201DIO     F411216   5.901   7.727   1.696
  201DIO     O111217   5.487   7.871   1.906
  201DIO    C1311218   5.393   7.786   1.849
  201DIO     O211219   5.392   7.662   1.825
  201DIO    C1411220   5.264   7.852   1.827
  201DIO    C1511221   5.197   7.931   1.933
  201DIO     F511222   5.260   7.952   2.051
  201DIO    C1611223   5.067   7.991   1.916
  201DIO    C1711224   4.991   7.970   1.793
  201DIO    C1811225   5.060   7.908   1.681
  201DIO    C1911226   5.191   7.849   1.698
  201DIO     F611227   5.254   7.805   1.586
  201DIO    C2011228   4.850   8.023   1.778
  201DIO     O311229   4.780   8.038   1.902
  201DIO    C2111230   4.737   7.914   1.956
  201DIO    C2211231   4.648   7.839   1.857
  201DIO    C2311232   4.729   7.824   1.728
  201DIO     O411233   4.773   7.951   1.681
  201DIO    C2411234   4.515   7.913   1.828
  201DIO    C2511235   4.424   7.938   1.949
  201DIO    C2611236   4.386   7.811   2.024
  201DIO     H111237   6.107   7.902   1.738
  201DIO     H211238   6.065   7.680   2.119
  201DIO     H311239   5.888   7.902   2.126
  201DIO     H411240   5.637   7.928   2.112
  201DIO     H511241   5.638   7.756   1.710
  201DIO     H611242   5.029   8.055   1.995
  201DIO     H711243   5.017   7.909   1.581
  201DIO     H811244   4.860   8.124   1.738
  201DIO     H911245   4.823   7.853   1.983
  201DIO    H1011246   4.684   7.935   2.049
  201DIO    H1111247   4.625   7.740   1.896
  201DIO    H1211248   4.668   7.779   1.649
  201DIO    H1311249   4.815   7.758   1.743
  201DIO    H1411250   4.535   8.009   1.780
  201DIO    H1511251   4.459   7.854   1.754
  201DIO    H1611252   4.472   8.008   2.018
  201DIO    H1711253   4.333   7.986   1.913
  201DIO    H1811254   4.342   7.737   1.957
  201DIO    H1911255   4.473   7.766   2.073
  201DIO    H2011256   4.312   7.835   2.101
  202DIO     F111257   4.177   6.385   9.631
  202DIO     C111258   4.099   6.293   9.690
  202DIO     C211259   3.955   6.310   9.689
  202DIO     C311260   3.866   6.211   9.755
  202DIO     C411261   3.932   6.095   9.819
  202DIO     C511262   4.076   6.080   9.818
  202DIO     F211263   4.131   5.971   9.874
  202DIO     C611264   4.160   6.178   9.754
  202DIO     F311265   4.294   6.164   9.755
  202DIO     C711266   3.720   6.227   9.757
  202DIO     C811267   3.643   6.217   9.883
  202DIO     C911268   3.498   6.232   9.884
  202DIO    C1011269   3.425   6.248   9.759
  202DIO    C1111270   3.498   6.266   9.635
  202DIO    C1211271   3.642   6.253   9.634
  202DIO     F411272   3.707   6.265   9.516
  202DIO     O111273   3.293   6.285   9.770
  202DIO    C1311274   3.199   6.241   9.678
  202DIO     O211275   3.198   6.145   9.596
  202DIO    C1411276   3.070   6.309   9.692
  202DIO    C1511277   3.003   6.324   9.824
  202DIO     F511278   3.066   6.284   9.936
  202DIO    C1611279   2.873   6.385   9.839
  202DIO    C1711280   2.797   6.428   9.722
  202DIO    C1811281   2.866   6.429   9.593
  202DIO    C1911282   2.997   6.370   9.579
  202DIO     F611283   3.060   6.388   9.460
  202DIO    C2011284   2.656   6.481   9.735
  202DIO     O311285   2.586   6.433   9.850
  202DIO    C2111286   2.543   6.298   9.835
  202DIO    C2211287   2.454   6.283   9.712
  202DIO    C2311288   2.535   6.334   9.593
  202DIO     O411289   2.579   6.467   9.615
  202DIO    C2411290   2.321   6.361   9.723
  202DIO    C2511291   2.230   6.322   9.840
  202DIO    C2611292   2.192   6.175   9.843
  202DIO     H111293   3.912   6.396   9.640
  202DIO     H211294   3.871   6.015   9.860
  202DIO     H311295   3.694   6.203   9.977
  202DIO     H411296   3.443   6.233   9.977
  202DIO     H511297   3.444   6.283   9.543
  202DIO     H611298   2.834   6.401   9.939
  202DIO     H711299   2.823   6.480   9.507
  202DIO     H811300   2.666   6.589   9.750
  202DIO     H911301   2.629   6.232   9.828
  202DIO    H1011302   2.490   6.270   9.927
  202DIO    H1111303   2.431   6.177   9.697
  202DIO    H1211304   2.473   6.333   9.502
  202DIO    H1311305   2.621   6.268   9.573
  202DIO    H1411306   2.341   6.469   9.730
  202DIO    H1511307   2.265   6.346   9.630
  202DIO    H1611308   2.278   6.350   9.936
  202DIO    H1711309   2.139   6.382   9.834
  202DIO    H1811310   2.148   6.144   9.748
  202DIO    H1911311   2.278   6.112   9.864
  202DIO    H2011312   2.118   6.157   9.922
  203DIO     F111313   7.613   5.854   0.604
  203DIO     C111314   7.535   5.745   0.618
  203DIO     C211315   7.391   5.761   0.625
  203DIO     C311316   7.303   5.644   0.643
  203DIO     C411317   7.368   5.511   0.651
  203DIO     C511318   7.512   5.498   0.644
  203DIO     F211319   7.568   5.375   0.648
  203DIO     C611320   7.596   5.615   0.628
  203DIO     F311321   7.730   5.601   0.622
  203DIO     C711322   7.156   5.658   0.651
  203DIO     C811323   7.079   5.595   0.761
  203DIO     C911324   6.934   5.608   0.768
  203DIO    C1011325   6.862   5.675   0.662
  203DIO    C1111326   6.934   5.744   0.557
  203DIO    C1211327   7.078   5.733   0.551
  203DIO     F411328   7.143   5.794   0.449
  203DIO     O111329   6.730   5.705   0.688
  203DIO    C1311330   6.635   5.703   0.586
  203DIO     O211331   6.634   5.651   0.471
  203DIO    C1411332   6.506   5.759   0.627
  203DIO    C1511333   6.440   5.717   0.753
  203DIO     F511334   6.502   5.633   0.837
  203DIO    C1611335   6.309   5.766   0.792
  203DIO    C1711336   6.233   5.854   0.704
  203DIO    C1811337   6.302   5.910   0.589
  203DIO    C1911338   6.433   5.862   0.550
  203DIO     F611339   6.496   5.929   0.451
  203DIO    C2011340   6.092   5.897   0.739
  203DIO     O311341   6.023   5.804   0.823
  203DIO    C2111342   5.979   5.689   0.752
  203DIO    C2211343   5.890   5.727   0.634
  203DIO    C2311344   5.971   5.824   0.548
  203DIO     O411345   6.015   5.935   0.624
  203DIO    C2411346   5.757   5.793   0.677
  203DIO    C2511347   5.667   5.708   0.767
  203DIO    C2611348   5.628   5.574   0.707
  203DIO     H111349   7.349   5.860   0.617
  203DIO     H211350   7.307   5.421   0.655
  203DIO     H311351   7.131   5.542   0.840
  203DIO     H411352   6.879   5.569   0.853
  203DIO     H511353   6.880   5.799   0.481
  203DIO     H611354   6.271   5.738   0.890
  203DIO     H711355   6.259   5.992   0.533
  203DIO     H811356   6.102   5.988   0.799
  203DIO     H911357   6.066   5.631   0.718
  203DIO    H1011358   5.926   5.624   0.823
  203DIO    H1111359   5.868   5.637   0.575
  203DIO    H1211360   5.910   5.862   0.465
  203DIO    H1311361   6.057   5.773   0.502
  203DIO    H1411362   5.777   5.888   0.729
  203DIO    H1511363   5.701   5.819   0.587
  203DIO    H1611364   5.714   5.693   0.865
  203DIO    H1711365   5.575   5.765   0.787
  203DIO    H1811366   5.584   5.586   0.608
  203DIO    H1911367   5.715   5.508   0.699
  203DIO    H2011368   5.555   5.524   0.771
  204DIO     F111369   7.027   9.902   1.575
  204DIO     C111370   6.950  10.009   1.602
  204DIO     C211371   6.806   9.997   1.590
  204DIO     C311372   6.717  10.113   1.616
  204DIO     C411373   6.782  10.239   1.657
  204DIO     C511374   6.927  10.249   1.669
  204DIO     F211375   6.982  10.364   1.710
  204DIO     C611376   7.010  10.134   1.642
  204DIO     F311377   7.144  10.145   1.651
  204DIO     C711378   6.571  10.103   1.604
  204DIO     C811379   6.493  10.201   1.525
  204DIO     C911380   6.349  10.192   1.513
  204DIO    C1011381   6.276  10.091   1.587
  204DIO    C1111382   6.349   9.988   1.659
  204DIO    C1211383   6.493   9.996   1.669
  204DIO     F411384   6.558   9.902   1.741
  204DIO     O111385   6.144  10.072   1.552
  204DIO    C1311386   6.049  10.037   1.648
  204DIO     O211387   6.049  10.043   1.774
  204DIO    C1411388   5.920  10.000   1.589
  204DIO    C1511389   5.854  10.085   1.487
  204DIO     F511390   5.917  10.194   1.440
  204DIO    C1611391   5.723  10.054   1.433
  204DIO    C1711392   5.647   9.939   1.482
  204DIO    C1811393   5.716   9.845   1.569
  204DIO    C1911394   5.848   9.875   1.623
  204DIO     F611395   5.910   9.777   1.691
  204DIO    C2011396   5.507   9.912   1.434
  204DIO     O311397   5.437  10.029   1.391
  204DIO    C2111398   5.393  10.111   1.499
  204DIO    C2211399   5.304  10.032   1.594
  204DIO    C2311400   5.385   9.910   1.639
  204DIO     O411401   5.429   9.835   1.527
  204DIO    C2411402   5.172   9.986   1.530
  204DIO    C2511403   5.081  10.098   1.477
  204DIO    C2611404   5.043  10.201   1.582
  204DIO     H111405   6.763   9.902   1.561
  204DIO     H211406   6.722  10.324   1.687
  204DIO     H311407   6.545  10.279   1.470
  204DIO     H411408   6.294  10.259   1.448
  204DIO     H511409   6.294   9.909   1.710
  204DIO     H611410   5.685  10.115   1.352
  204DIO     H711411   5.673   9.748   1.591
  204DIO     H811412   5.516   9.849   1.345
  204DIO     H911413   5.480  10.152   1.551
  204DIO    H1011414   5.341  10.197   1.456
  204DIO    H1111415   5.282  10.094   1.682
  204DIO    H1211416   5.324   9.845   1.702
  204DIO    H1311417   5.471   9.941   1.700
  204DIO    H1411418   5.192   9.917   1.447
  204DIO    H1511419   5.115   9.929   1.604
  204DIO    H1611420   5.128  10.149   1.392
  204DIO    H1711421   4.989  10.052   1.438
  204DIO    H1811422   4.999  10.153   1.670
  204DIO    H1911423   5.129  10.260   1.614
  204DIO    H2011424   4.969  10.271   1.541
  205DIO     F111425  10.248   0.493   1.373
  205DIO     C111426  10.170   0.542   1.472
  205DIO     C211427  10.026   0.543   1.455
  205DIO     C311428   9.937   0.598   1.560
  205DIO     C411429  10.003   0.649   1.682
  205DIO     C511430  10.147   0.646   1.697
  205DIO     F211431  10.202   0.690   1.812
  205DIO     C611432  10.231   0.593   1.592
  205DIO     F311433  10.365   0.592   1.607
  205DIO     C711434   9.791   0.601   1.544
  205DIO     C811435   9.714   0.725   1.568
  205DIO     C911436   9.569   0.728   1.553
  205DIO    C1011437   9.496   0.606   1.524
  205DIO    C1111438   9.569   0.484   1.492
  205DIO    C1211439   9.713   0.482   1.505
  205DIO     F411440   9.778   0.366   1.480
  205DIO     O111441   9.364   0.621   1.488
  205DIO    C1311442   9.270   0.524   1.522
  205DIO     O211443   9.269   0.433   1.608
  205DIO    C1411444   9.141   0.546   1.456
  205DIO    C1511445   9.074   0.678   1.455
  205DIO     F511446   9.137   0.785   1.507
  205DIO    C1611447   8.944   0.699   1.396
  205DIO    C1711448   8.868   0.588   1.341
  205DIO    C1811449   8.937   0.460   1.325
  205DIO    C1911450   9.068   0.439   1.383
  205DIO     F611451   9.131   0.323   1.352
  205DIO    C2011452   8.727   0.606   1.289
  205DIO     O311453   8.657   0.716   1.350
  205DIO    C2111454   8.614   0.686   1.482
  205DIO    C2211455   8.525   0.563   1.484
  205DIO    C2311456   8.606   0.449   1.421
  205DIO     O411457   8.650   0.486   1.290
  205DIO    C2411458   8.392   0.582   1.407
  205DIO    C2511459   8.301   0.694   1.458
  205DIO    C2611460   8.263   0.681   1.605
  205DIO     H111461   9.983   0.503   1.364
  205DIO     H211462   9.942   0.681   1.767
  205DIO     H311463   9.765   0.817   1.592
  205DIO     H411464   9.514   0.821   1.562
  205DIO     H511465   9.515   0.395   1.465
  205DIO     H611466   8.905   0.801   1.390
  205DIO     H711467   8.894   0.380   1.266
  205DIO     H811468   8.737   0.634   1.183
  205DIO     H911469   8.700   0.673   1.547
  205DIO    H1011470   8.561   0.774   1.520
  205DIO    H1111471   8.502   0.536   1.588
  205DIO    H1211472   8.544   0.359   1.411
  205DIO    H1311473   8.692   0.423   1.483
  205DIO    H1411474   8.412   0.600   1.301
  205DIO    H1511475   8.336   0.488   1.412
  205DIO    H1611476   8.349   0.792   1.442
  205DIO    H1711477   8.210   0.694   1.398
  205DIO    H1811478   8.219   0.583   1.625
  205DIO    H1911479   8.349   0.695   1.670
  205DIO    H2011480   8.189   0.758   1.631
  206DIO     F111481   7.545   4.343   5.954
  206DIO     C111482   7.468   4.268   6.034
  206DIO     C211483   7.324   4.284   6.029
  206DIO     C311484   7.235   4.205   6.117
  206DIO     C411485   7.300   4.107   6.208
  206DIO     C511486   7.445   4.093   6.210
  206DIO     F211487   7.500   4.000   6.291
  206DIO     C611488   7.528   4.172   6.124
  206DIO     F311489   7.662   4.159   6.128
  206DIO     C711490   7.088   4.220   6.115
  206DIO     C811491   7.011   4.241   6.239
  206DIO     C911492   6.867   4.256   6.237
  206DIO    C1011493   6.794   4.241   6.112
  206DIO    C1111494   6.866   4.228   5.987
  206DIO    C1211495   7.011   4.216   5.989
  206DIO     F411496   7.075   4.198   5.872
  206DIO     O111497   6.662   4.280   6.113
  206DIO    C1311498   6.567   4.214   6.035
  206DIO     O211499   6.566   4.101   5.979
  206DIO    C1411500   6.438   4.284   6.032
  206DIO    C1511501   6.372   4.331   6.156
  206DIO     F511502   6.434   4.319   6.275
  206DIO    C1611503   6.241   4.394   6.155
  206DIO    C1711504   6.165   4.406   6.031
  206DIO    C1811505   6.234   4.376   5.906
  206DIO    C1911506   6.366   4.315   5.907
  206DIO     F611507   6.428   4.303   5.788
  206DIO    C2011508   6.025   4.461   6.031
  206DIO     O311509   5.955   4.442   6.155
  206DIO    C2111510   5.911   4.308   6.173
  206DIO    C2211511   5.822   4.263   6.058
  206DIO    C2311512   5.903   4.283   5.930
  206DIO     O411513   5.947   4.418   5.918
  206DIO    C2411514   5.689   4.342   6.049
  206DIO    C2511515   5.599   4.333   6.173
  206DIO    C2611516   5.560   4.191   6.211
  206DIO     H111517   7.281   4.355   5.960
  206DIO     H211518   7.240   4.040   6.267
  206DIO     H311519   7.063   4.251   6.334
  206DIO     H411520   6.811   4.280   6.327
  206DIO     H511521   6.812   4.222   5.894
  206DIO     H611522   6.203   4.434   6.249
  206DIO     H711523   6.191   4.405   5.811
  206DIO     H811524   6.034   4.570   6.020
  206DIO     H911525   5.998   4.242   6.183
  206DIO    H1011526   5.858   4.303   6.269
  206DIO    H1111527   5.800   4.157   6.069
  206DIO    H1211528   5.842   4.261   5.842
  206DIO    H1311529   5.989   4.215   5.927
  206DIO    H1411530   5.709   4.448   6.029
  206DIO    H1511531   5.633   4.305   5.963
  206DIO    H1611532   5.646   4.383   6.258
  206DIO    H1711533   5.507   4.390   6.152
  206DIO    H1811534   5.516   4.138   6.126
  206DIO    H1911535   5.647   4.135   6.247
  206DIO    H2011536   5.487   4.193   6.292
  207DIO     F111537   6.237   5.628   2.889
  207DIO     C111538   6.159   5.542   2.820
  207DIO     C211539   6.015   5.548   2.836
  207DIO     C311540   5.926   5.454   2.763
  207DIO     C411541   5.992   5.357   2.673
  207DIO     C511542   6.136   5.353   2.659
  207DIO     F211543   6.191   5.265   2.573
  207DIO     C611544   6.220   5.445   2.732
  207DIO     F311545   6.354   5.440   2.718
  207DIO     C711546   5.780   5.458   2.779
  207DIO     C811547   5.703   5.335   2.810
  207DIO     C911548   5.558   5.339   2.824
  207DIO    C1011549   5.485   5.462   2.799
  207DIO    C1111550   5.558   5.586   2.777
  207DIO    C1211551   5.702   5.583   2.765
  207DIO     F411552   5.767   5.698   2.738
  207DIO     O111553   5.353   5.464   2.838
  207DIO    C1311554   5.259   5.537   2.767
  207DIO     O211555   5.258   5.584   2.650
  207DIO    C1411556   5.130   5.545   2.836
  207DIO    C1511557   5.063   5.426   2.892
  207DIO     F511558   5.126   5.306   2.890
  207DIO    C1611559   4.933   5.431   2.955
  207DIO    C1711560   4.857   5.555   2.958
  207DIO    C1811561   4.926   5.678   2.918
  207DIO    C1911562   5.057   5.672   2.857
  207DIO     F611563   5.120   5.790   2.836
  207DIO    C2011564   4.716   5.560   3.013
  207DIO     O311565   4.646   5.436   3.004
  207DIO    C2111566   4.603   5.406   2.871
  207DIO    C2211567   4.514   5.518   2.817
  207DIO    C2311568   4.595   5.647   2.827
  207DIO     O411569   4.639   5.669   2.961
  207DIO    C2411570   4.381   5.533   2.895
  207DIO    C2511571   4.290   5.409   2.896
  207DIO    C2611572   4.252   5.360   2.757
  207DIO     H111573   5.972   5.623   2.902
  207DIO     H211574   5.931   5.292   2.611
  207DIO     H311575   5.754   5.242   2.826
  207DIO     H411576   5.503   5.251   2.855
  207DIO     H511577   5.504   5.678   2.764
  207DIO     H611578   4.894   5.341   3.002
  207DIO     H711579   4.883   5.775   2.939
  207DIO     H811580   4.726   5.580   3.120
  207DIO     H911581   4.689   5.391   2.806
  207DIO    H1011582   4.550   5.311   2.874
  207DIO    H1111583   4.491   5.499   2.712
  207DIO    H1211584   4.533   5.733   2.798
  207DIO    H1311585   4.681   5.645   2.759
  207DIO    H1411586   4.401   5.561   2.999
  207DIO    H1511587   4.325   5.616   2.851
  207DIO    H1611588   4.338   5.328   2.952
  207DIO    H1711589   4.199   5.434   2.951
  207DIO    H1811590   4.208   5.440   2.698
  207DIO    H1911591   4.338   5.320   2.704
  207DIO    H2011592   4.178   5.279   2.766
  208DIO     F111593   3.051  10.352   1.916
  208DIO     C111594   2.974  10.461   1.927
  208DIO     C211595   2.830  10.447   1.917
  208DIO     C311596   2.741  10.565   1.927
  208DIO     C411597   2.806  10.696   1.950
  208DIO     C511598   2.951  10.707   1.959
  208DIO     F211599   3.006  10.828   1.984
  208DIO     C611600   3.034  10.590   1.949
  208DIO     F311601   3.168  10.602   1.957
  208DIO     C711602   2.595  10.554   1.916
  208DIO     C811603   2.517  10.640   1.824
  208DIO     C911604   2.373  10.629   1.813
  208DIO    C1011605   2.300  10.539   1.901
  208DIO    C1111606   2.373  10.448   1.987
  208DIO    C1211607   2.517  10.457   1.996
  208DIO     F411608   2.582  10.375   2.080
  208DIO     O111609   2.168  10.517   1.869
  208DIO    C1311610   2.073  10.495   1.969
  208DIO     O211611   2.073  10.518   2.093
  208DIO    C1411612   1.944  10.450   1.916
  208DIO    C1511613   1.878  10.520   1.803
  208DIO     F511614   1.941  10.621   1.740
  208DIO    C1611615   1.747  10.481   1.753
  208DIO    C1711616   1.671  10.375   1.819
  208DIO    C1811617   1.740  10.294   1.918
  208DIO    C1911618   1.872  10.331   1.967
  208DIO     F611619   1.934  10.244   2.048
  208DIO    C2011620   1.531  10.341   1.775
  208DIO     O311621   1.461  10.451   1.715
  208DIO    C2111622   1.417  10.547   1.811
  208DIO    C2211623   1.328  10.483   1.916
  208DIO    C2311624   1.409  10.369   1.978
  208DIO     O411625   1.453  10.278   1.878
  208DIO    C2411626   1.196  10.428   1.859
  208DIO    C2511627   1.105  10.531   1.791
  208DIO    C2611628   1.067  10.648   1.881
  208DIO     H111629   2.787  10.349   1.902
  208DIO     H211630   2.746  10.785   1.967
  208DIO     H311631   2.569  10.710   1.759
  208DIO     H411632   2.318  10.687   1.740
  208DIO     H511633   2.318  10.377   2.048
  208DIO     H611634   1.709  10.531   1.665
  208DIO     H711635   1.697  10.201   1.954
  208DIO     H811636   1.540  10.266   1.696
  208DIO     H911637   1.504  10.595   1.857
  208DIO    H1011638   1.365  10.626   1.757
  208DIO    H1111639   1.306  10.556   1.995
  208DIO    H1211640   1.348  10.312   2.049
  208DIO    H1311641   1.495  10.407   2.034
  208DIO    H1411642   1.216  10.348   1.787
  208DIO    H1511643   1.139  10.382   1.941
  208DIO    H1611644   1.152  10.569   1.700
  208DIO    H1711645   1.013  10.480   1.759
  208DIO    H1811646   1.023  10.613   1.975
  208DIO    H1911647   1.153  10.711   1.904
  208DIO    H2011648   0.993  10.711   1.830
  209DIO     F111649   7.499   1.426   2.208
  209DIO     C111650   7.421   1.456   2.314
  209DIO     C211651   7.277   1.461   2.297
  209DIO     C311652   7.188   1.495   2.411
  209DIO     C411653   7.254   1.523   2.541
  209DIO     C511654   7.398   1.518   2.554
  209DIO     F211655   7.454   1.539   2.675
  209DIO     C611656   7.482   1.484   2.442
  209DIO     F311657   7.616   1.481   2.456
  209DIO     C711658   7.042   1.501   2.396
  209DIO     C811659   6.965   1.619   2.442
  209DIO     C911660   6.820   1.625   2.428
  209DIO    C1011661   6.748   1.510   2.377
  209DIO    C1111662   6.820   1.396   2.324
  209DIO    C1211663   6.964   1.391   2.335
  209DIO     F411664   7.029   1.282   2.290
  209DIO     O111665   6.615   1.531   2.344
  209DIO    C1311666   6.521   1.430   2.360
  209DIO     O211667   6.520   1.324   2.428
  209DIO    C1411668   6.392   1.463   2.299
  209DIO    C1511669   6.325   1.593   2.322
  209DIO     F511670   6.388   1.689   2.393
  209DIO    C1611671   6.195   1.625   2.268
  209DIO    C1711672   6.119   1.525   2.193
  209DIO    C1811673   6.188   1.403   2.155
  209DIO    C1911674   6.319   1.372   2.208
  209DIO     F611675   6.382   1.264   2.156
  209DIO    C2011676   5.978   1.553   2.146
  209DIO     O311677   5.908   1.650   2.226
  209DIO    C2111678   5.865   1.597   2.350
  209DIO    C2211679   5.776   1.475   2.330
  209DIO    C2311680   5.857   1.375   2.247
  209DIO     O411681   5.901   1.435   2.125
  209DIO    C2411682   5.643   1.508   2.258
  209DIO    C2511683   5.552   1.609   2.329
  209DIO    C2611684   5.514   1.569   2.470
  209DIO     H111685   7.235   1.438   2.200
  209DIO     H211686   7.193   1.539   2.629
  209DIO     H311687   7.016   1.705   2.482
  209DIO     H411688   6.765   1.714   2.454
  209DIO     H511689   6.766   1.313   2.281
  209DIO     H611690   6.157   1.726   2.281
  209DIO     H711691   6.145   1.335   2.082
  209DIO     H811692   5.988   1.599   2.047
  209DIO     H911693   5.951   1.571   2.412
  209DIO    H1011694   5.812   1.676   2.404
  209DIO    H1111695   5.753   1.429   2.427
  209DIO    H1211696   5.796   1.288   2.221
  209DIO    H1311697   5.943   1.337   2.303
  209DIO    H1411698   5.663   1.545   2.157
  209DIO    H1511699   5.587   1.414   2.245
  209DIO    H1611700   5.600   1.708   2.330
  209DIO    H1711701   5.461   1.620   2.269
  209DIO    H1811702   5.470   1.469   2.472
  209DIO    H1911703   5.601   1.570   2.537
  209DIO    H2011704   5.440   1.639   2.510
  210DIO     F111705   8.242  10.756   6.562
  210DIO     C111706   8.165  10.735   6.670
  210DIO     C211707   8.021  10.746   6.657
  210DIO     C311708   7.932  10.726   6.774
  210DIO     C411709   7.997  10.691   6.902
  210DIO     C511710   8.142  10.680   6.912
  210DIO     F211711   8.197  10.645   7.029
  210DIO     C611712   8.225  10.702   6.796
  210DIO     F311713   8.359  10.692   6.807
  210DIO     C711714   7.786  10.738   6.763
  210DIO     C811715   7.708  10.822   6.858
  210DIO     C911716   7.564  10.833   6.848
  210DIO    C1011717   7.491  10.754   6.750
  210DIO    C1111718   7.564  10.677   6.651
  210DIO    C1211719   7.708  10.667   6.659
  210DIO     F411720   7.773  10.591   6.569
  210DIO     O111721   7.359  10.788   6.730
  210DIO    C1311722   7.264  10.690   6.699
  210DIO     O211723   7.264  10.565   6.711
  210DIO    C1411724   7.135  10.748   6.660
  210DIO    C1511725   7.069  10.853   6.739
  210DIO     F511726   7.132  10.906   6.847
  210DIO    C1611727   6.938  10.906   6.706
  210DIO    C1711728   6.862  10.851   6.594
  210DIO    C1811729   6.931  10.760   6.504
  210DIO    C1911730   7.063  10.708   6.537
  210DIO     F611731   7.125  10.635   6.442
  210DIO    C2011732   6.722  10.898   6.564
  210DIO     O311733   6.652  10.947   6.679
  210DIO    C2111734   6.608  10.843   6.766
  210DIO    C2211735   6.519  10.744   6.692
  210DIO    C2311736   6.600  10.693   6.573
  210DIO     O411737   6.644  10.801   6.492
  210DIO    C2411738   6.387  10.806   6.643
  210DIO    C2511739   6.296  10.864   6.752
  210DIO    C2611740   6.258  10.764   6.860
  210DIO     H111741   7.978  10.770   6.560
  210DIO     H211742   7.937  10.665   6.988
  210DIO     H311743   7.760  10.880   6.933
  210DIO     H411744   7.509  10.901   6.912
  210DIO     H511745   7.509  10.622   6.575
  210DIO     H611746   6.900  10.990   6.763
  210DIO     H711747   6.888  10.733   6.408
  210DIO     H811748   6.731  10.984   6.497
  210DIO     H911749   6.695  10.792   6.810
  210DIO    H1011750   6.556  10.890   6.850
  210DIO    H1111751   6.497  10.659   6.758
  210DIO    H1211752   6.539  10.627   6.510
  210DIO    H1311753   6.686  10.634   6.606
  210DIO    H1411754   6.407  10.885   6.570
  210DIO    H1511755   6.330  10.729   6.590
  210DIO    H1611756   6.343  10.951   6.799
  210DIO    H1711757   6.204  10.901   6.705
  210DIO    H1811758   6.214  10.674   6.817
  210DIO    H1911759   6.344  10.735   6.920
  210DIO    H2011760   6.184  10.808   6.928
  211DIO     F111761   7.707   0.275   6.543
  211DIO     C111762   7.629   0.181   6.601
  211DIO     C211763   7.485   0.198   6.601
  211DIO     C311764   7.396   0.099   6.665
  211DIO     C411765   7.462  -0.019   6.728
  211DIO     C511766   7.606  -0.033   6.726
  211DIO     F211767   7.662  -0.143   6.780
  211DIO     C611768   7.690   0.066   6.663
  211DIO     F311769   7.824   0.052   6.664
  211DIO     C711770   7.250   0.115   6.667
  211DIO     C811771   7.173   0.103   6.793
  211DIO     C911772   7.028   0.118   6.794
  211DIO    C1011773   6.956   0.135   6.670
  211DIO    C1111774   7.028   0.155   6.546
  211DIO    C1211775   7.172   0.143   6.545
  211DIO     F411776   7.237   0.156   6.427
  211DIO     O111777   6.823   0.173   6.681
  211DIO    C1311778   6.729   0.129   6.589
  211DIO     O211779   6.728   0.035   6.505
  211DIO    C1411780   6.600   0.197   6.604
  211DIO    C1511781   6.534   0.211   6.735
  211DIO     F511782   6.596   0.169   6.847
  211DIO    C1611783   6.403   0.272   6.751
  211DIO    C1711784   6.327   0.316   6.635
  211DIO    C1811785   6.396   0.319   6.506
  211DIO    C1911786   6.527   0.260   6.491
  211DIO     F611787   6.590   0.280   6.373
  211DIO    C2011788   6.186   0.369   6.648
  211DIO     O311789   6.117   0.319   6.763
  211DIO    C2111790   6.073   0.185   6.746
  211DIO    C2211791   5.984   0.171   6.623
  211DIO    C2311792   6.065   0.224   6.505
  211DIO     O411793   6.109   0.357   6.529
  211DIO    C2411794   5.851   0.249   6.635
  211DIO    C2511795   5.761   0.209   6.752
  211DIO    C2611796   5.722   0.062   6.752
  211DIO     H111797   7.443   0.285   6.552
  211DIO     H211798   7.401  -0.099   6.767
  211DIO     H311799   7.224   0.087   6.887
  211DIO     H411800   6.973   0.117   6.887
  211DIO     H511801   6.974   0.174   6.454
  211DIO     H611802   6.365   0.286   6.852
  211DIO     H711803   6.353   0.371   6.421
  211DIO     H811804   6.196   0.477   6.666
  211DIO     H911805   6.160   0.118   6.739
  211DIO    H1011806   6.020   0.155   6.837
  211DIO    H1111807   5.961   0.065   6.606
  211DIO    H1211808   6.004   0.225   6.414
  211DIO    H1311809   6.151   0.159   6.484
  211DIO    H1411810   5.871   0.357   6.643
  211DIO    H1511811   5.795   0.236   6.542
  211DIO    H1611812   5.808   0.235   6.848
  211DIO    H1711813   5.669   0.269   6.746
  211DIO    H1811814   5.678   0.032   6.657
  211DIO    H1911815   5.809  -0.002   6.772
  211DIO    H2011816   5.648   0.043   6.831
  212DIO     F111817   6.194  -0.517   9.124
  212DIO     C111818   6.116  -0.602   9.054
  212DIO     C211819   5.972  -0.596   9.070
  212DIO     C311820   5.883  -0.689   8.996
  212DIO     C411821   5.949  -0.785   8.904
  212DIO     C511822   6.093  -0.788   8.890
  212DIO     F211823   6.148  -0.874   8.802
  212DIO     C611824   6.177  -0.697   8.964
  212DIO     F311825   6.310  -0.702   8.951
  212DIO     C711826   5.737  -0.685   9.011
  212DIO     C811827   5.660  -0.808   9.040
  212DIO     C911828   5.515  -0.805   9.055
  212DIO    C1011829   5.442  -0.681   9.032
  212DIO    C1111830   5.515  -0.557   9.011
  212DIO    C1211831   5.659  -0.560   8.999
  212DIO     F411832   5.724  -0.445   8.975
  212DIO     O111833   5.310  -0.680   9.071
  212DIO    C1311834   5.216  -0.606   9.000
  212DIO     O211835   5.215  -0.557   8.885
  212DIO    C1411836   5.087  -0.599   9.070
  212DIO    C1511837   5.020  -0.720   9.124
  212DIO     F511838   5.083  -0.839   9.120
  212DIO    C1611839   4.889  -0.715   9.187
  212DIO    C1711840   4.814  -0.591   9.192
  212DIO    C1811841   4.882  -0.468   9.155
  212DIO    C1911842   5.014  -0.472   9.093
  212DIO     F611843   5.077  -0.354   9.075
  212DIO    C2011844   4.673  -0.587   9.247
  212DIO     O311845   4.603  -0.712   9.236
  212DIO    C2111846   4.560  -0.738   9.103
  212DIO    C2211847   4.471  -0.626   9.051
  212DIO    C2311848   4.551  -0.497   9.063
  212DIO     O411849   4.596  -0.477   9.197
  212DIO    C2411850   4.338  -0.613   9.129
  212DIO    C2511851   4.247  -0.736   9.128
  212DIO    C2611852   4.209  -0.783   8.988
  212DIO     H111853   5.929  -0.522   9.137
  212DIO     H211854   5.888  -0.848   8.840
  212DIO     H311855   5.711  -0.902   9.055
  212DIO     H411856   5.460  -0.893   9.084
  212DIO     H511857   5.460  -0.465   9.000
  212DIO     H611858   4.851  -0.806   9.233
  212DIO     H711859   4.840  -0.371   9.177
  212DIO     H811860   4.683  -0.569   9.355
  212DIO     H911861   4.646  -0.752   9.037
  212DIO    H1011862   4.507  -0.834   9.103
  212DIO    H1111863   4.448  -0.643   8.945
  212DIO    H1211864   4.490  -0.410   9.035
  212DIO    H1311865   4.638  -0.498   8.995
  212DIO    H1411866   4.358  -0.586   9.233
  212DIO    H1511867   4.281  -0.528   9.086
  212DIO    H1611868   4.295  -0.818   9.182
  212DIO    H1711869   4.155  -0.712   9.183
  212DIO    H1811870   4.165  -0.702   8.930
  212DIO    H1911871   4.295  -0.822   8.934
  212DIO    H2011872   4.135  -0.864   8.995
  213DIO     F111873   3.029  -0.419   0.446
  213DIO     C111874   2.951  -0.348   0.529
  213DIO     C211875   2.807  -0.351   0.513
  213DIO     C311876   2.718  -0.271   0.601
  213DIO     C411877   2.784  -0.192   0.707
  213DIO     C511878   2.928  -0.191   0.722
  213DIO     F211879   2.983  -0.120   0.823
  213DIO     C611880   3.012  -0.268   0.634
  213DIO     F311881   3.145  -0.266   0.648
  213DIO     C711882   2.572  -0.272   0.585
  213DIO     C811883   2.495  -0.146   0.577
  213DIO     C911884   2.350  -0.147   0.562
  213DIO    C1011885   2.277  -0.272   0.564
  213DIO    C1111886   2.350  -0.398   0.564
  213DIO    C1211887   2.494  -0.397   0.576
  213DIO     F411888   2.559  -0.516   0.581
  213DIO     O111889   2.145  -0.267   0.525
  213DIO    C1311890   2.051  -0.352   0.583
  213DIO     O211891   2.050  -0.420   0.689
  213DIO    C1411892   1.921  -0.348   0.513
  213DIO    C1511893   1.855  -0.220   0.479
  213DIO     F511894   1.918  -0.103   0.504
  213DIO    C1611895   1.724  -0.213   0.417
  213DIO    C1711896   1.649  -0.335   0.391
  213DIO    C1811897   1.717  -0.463   0.408
  213DIO    C1911898   1.849  -0.469   0.469
  213DIO     F611899   1.911  -0.589   0.468
  213DIO    C2011900   1.508  -0.330   0.336
  213DIO     O311901   1.438  -0.209   0.368
  213DIO    C2111902   1.394  -0.205   0.504
  213DIO    C2211903   1.306  -0.324   0.536
  213DIO    C2311904   1.386  -0.450   0.503
  213DIO     O411905   1.431  -0.447   0.367
  213DIO    C2411906   1.173  -0.324   0.457
  213DIO    C2511907   1.082  -0.203   0.479
  213DIO    C2611908   1.044  -0.180   0.624
  213DIO     H111909   2.764  -0.412   0.434
  213DIO     H211910   2.723  -0.140   0.781
  213DIO     H311911   2.546  -0.051   0.578
  213DIO     H411912   2.295  -0.055   0.548
  213DIO     H511913   2.295  -0.492   0.560
  213DIO     H611914   1.686  -0.117   0.387
  213DIO     H711915   1.674  -0.555   0.370
  213DIO     H811916   1.518  -0.330   0.227
  213DIO     H911917   1.481  -0.202   0.571
  213DIO    H1011918   1.342  -0.110   0.519
  213DIO    H1111919   1.283  -0.325   0.643
  213DIO    H1211920   1.325  -0.540   0.516
  213DIO    H1311921   1.472  -0.460   0.570
  213DIO    H1411922   1.193  -0.333   0.350
  213DIO    H1511923   1.116  -0.414   0.485
  213DIO    H1611924   1.129  -0.112   0.439
  213DIO    H1711925   0.990  -0.218   0.420
  213DIO    H1811926   1.000  -0.270   0.668
  213DIO    H1911927   1.130  -0.150   0.684
  213DIO    H2011928   0.970  -0.099   0.631
  214DIO     F111929   9.214   2.131   0.951
  214DIO     C111930   9.136   2.060   1.036
  214DIO     C211931   8.992   2.076   1.030
  214DIO     C311932   8.903   2.003   1.123
  214DIO     C411933   8.969   1.911   1.219
  214DIO     C511934   9.113   1.897   1.223
  214DIO     F211935   9.169   1.809   1.309
  214DIO     C611936   9.197   1.971   1.131
  214DIO     F311937   9.331   1.957   1.136
  214DIO     C711938   8.757   2.018   1.119
  214DIO     C811939   8.680   2.046   1.243
  214DIO     C911940   8.535   2.061   1.239
  214DIO    C1011941   8.463   2.039   1.116
  214DIO    C1111942   8.535   2.018   0.992
  214DIO    C1211943   8.679   2.006   0.994
  214DIO     F411944   8.744   1.982   0.879
  214DIO     O111945   8.330   2.078   1.115
  214DIO    C1311946   8.236   2.007   1.041
  214DIO     O211947   8.235   1.891   0.991
  214DIO    C1411948   8.107   2.076   1.033
  214DIO    C1511949   8.041   2.131   1.154
  214DIO     F511950   8.103   2.126   1.273
  214DIO    C1611951   7.910   2.194   1.150
  214DIO    C1711952   7.834   2.199   1.025
  214DIO    C1811953   7.903   2.162   0.902
  214DIO    C1911954   8.034   2.100   0.906
  214DIO     F611955   8.097   2.082   0.788
  214DIO    C2011956   7.693   2.254   1.021
  214DIO     O311957   7.624   2.242   1.146
  214DIO    C2111958   7.580   2.109   1.173
  214DIO    C2211959   7.491   2.058   1.060
  214DIO    C2311960   7.572   2.070   0.931
  214DIO     O411961   7.616   2.204   0.912
  214DIO    C2411962   7.358   2.135   1.047
  214DIO    C2511963   7.268   2.134   1.170
  214DIO    C2611964   7.229   1.995   1.217
  214DIO     H111965   8.950   2.144   0.957
  214DIO     H211966   8.908   1.847   1.282
  214DIO     H311967   8.731   2.061   1.336
  214DIO     H411968   8.480   2.090   1.328
  214DIO     H511969   8.481   2.007   0.899
  214DIO     H611970   7.872   2.239   1.240
  214DIO     H711971   7.860   2.184   0.805
  214DIO     H811972   7.703   2.361   1.004
  214DIO     H911973   7.667   2.044   1.186
  214DIO    H1011974   7.527   2.110   1.268
  214DIO    H1111975   7.468   1.952   1.077
  214DIO    H1211976   7.511   2.042   0.844
  214DIO    H1311977   7.658   2.002   0.932
  214DIO    H1411978   7.378   2.240   1.021
  214DIO    H1511979   7.302   2.093   0.963
  214DIO    H1611980   7.315   2.189   1.253
  214DIO    H1711981   7.176   2.189   1.146
  214DIO    H1811982   7.185   1.936   1.136
  214DIO    H1911983   7.316   1.940   1.256
  214DIO    H2011984   7.155   2.001   1.298
  215DIO     F111985   8.719   5.147   1.560
  215DIO     C111986   8.642   5.180   1.455
  215DIO     C211987   8.498   5.167   1.466
  215DIO     C311988   8.409   5.201   1.353
  215DIO     C411989   8.474   5.250   1.229
  215DIO     C511990   8.619   5.262   1.220
  215DIO     F211991   8.674   5.311   1.108
  215DIO     C611992   8.702   5.227   1.333
  215DIO     F311993   8.836   5.238   1.323
  215DIO     C711994   8.262   5.188   1.362
  215DIO     C811995   8.185   5.115   1.258
  215DIO     C911996   8.041   5.103   1.267
  215DIO    C1011997   7.968   5.170   1.373
  215DIO    C1111998   8.041   5.236   1.480
  215DIO    C1211999   8.185   5.246   1.473
  215DIO     F412000   8.250   5.312   1.571
  215DIO     O112001   7.836   5.134   1.389
  215DIO    C1312002   7.741   5.228   1.431
  215DIO     O212003   7.740   5.354   1.433
  215DIO    C1412004   7.612   5.166   1.463
  215DIO    C1512005   7.546   5.070   1.372
  215DIO     F512006   7.609   5.030   1.260
  215DIO    C1612007   7.415   5.014   1.400
  215DIO    C1712008   7.339   5.056   1.517
  215DIO    C1812009   7.408   5.137   1.617
  215DIO    C1912010   7.540   5.192   1.590
  215DIO     F612011   7.602   5.254   1.693
  215DIO    C2012012   7.199   5.007   1.541
  215DIO     O312013   7.129   4.970   1.421
  215DIO    C2112014   7.085   5.083   1.347
  215DIO    C2212015   6.996   5.174   1.432
  215DIO    C2312016   7.077   5.211   1.556
  215DIO     O412017   7.121   5.094   1.624
  215DIO    C2412018   6.864   5.107   1.473
  215DIO    C2512019   6.773   5.061   1.358
  215DIO    C2612020   6.734   5.173   1.262
  215DIO     H112021   8.455   5.133   1.560
  215DIO     H212022   8.414   5.285   1.146
  215DIO     H312023   8.237   5.066   1.177
  215DIO     H412024   7.986   5.043   1.196
  215DIO     H512025   7.986   5.281   1.562
  215DIO     H612026   7.377   4.937   1.333
  215DIO     H712027   7.365   5.153   1.715
  215DIO     H812028   7.208   4.913   1.598
  215DIO     H912029   7.172   5.139   1.309
  215DIO    H1012030   7.032   5.047   1.258
  215DIO    H1112031   6.974   5.265   1.376
  215DIO    H1212032   7.016   5.269   1.626
  215DIO    H1312033   7.163   5.273   1.529
  215DIO    H1412034   6.883   5.019   1.537
  215DIO    H1512035   6.807   5.177   1.535
  215DIO    H1612036   6.820   4.980   1.302
  215DIO    H1712037   6.681   5.019   1.401
  215DIO    H1812038   6.691   5.257   1.316
  215DIO    H1912039   6.821   5.208   1.206
  215DIO    H2012040   6.661   5.136   1.190
  216DIO     F112041   1.541   0.023   6.280
  216DIO     C112042   1.463   0.127   6.243
  216DIO     C212043   1.319   0.110   6.240
  216DIO     C312044   1.230   0.221   6.198
  216DIO     C412045   1.296   0.349   6.163
  216DIO     C512046   1.440   0.363   6.167
  216DIO     F212047   1.495   0.482   6.138
  216DIO     C612048   1.524   0.253   6.208
  216DIO     F312049   1.658   0.267   6.210
  216DIO     C712050   1.084   0.206   6.193
  216DIO     C812051   1.007   0.244   6.073
  216DIO     C912052   0.862   0.230   6.068
  216DIO    C1012053   0.789   0.186   6.186
  216DIO    C1112054   0.862   0.140   6.303
  216DIO    C1212055   1.006   0.152   6.307
  216DIO     F412056   1.071   0.114   6.419
  216DIO     O112057   0.657   0.152   6.167
  216DIO    C1312058   0.563   0.175   6.267
  216DIO     O212059   0.562   0.249   6.368
  216DIO    C1412060   0.434   0.112   6.238
  216DIO    C1512061   0.367   0.127   6.106
  216DIO     F512062   0.430   0.192   6.006
  216DIO    C1612063   0.237   0.071   6.078
  216DIO    C1712064   0.161   0.002   6.182
  216DIO    C1812065   0.230  -0.029   6.307
  216DIO    C1912066   0.361   0.026   6.334
  216DIO     F612067   0.424  -0.018   6.446
  216DIO    C2012068   0.020  -0.047   6.157
  216DIO     O312069  -0.050   0.027   6.056
  216DIO    C2112070  -0.093   0.155   6.101
  216DIO    C2212071  -0.182   0.142   6.224
  216DIO    C2312072  -0.101   0.065   6.329
  216DIO     O412073  -0.057  -0.060   6.277
  216DIO    C2412074  -0.315   0.068   6.196
  216DIO    C2512075  -0.406   0.132   6.090
  216DIO    C2612076  -0.444   0.276   6.121
  216DIO     H112077   1.276   0.015   6.269
  216DIO     H212078   1.235   0.436   6.141
  216DIO     H312079   1.058   0.280   5.985
  216DIO     H412080   0.807   0.250   5.978
  216DIO     H512081   0.808   0.103   6.389
  216DIO     H612082   0.198   0.078   5.976
  216DIO     H712083   0.187  -0.097   6.378
  216DIO     H812084   0.030  -0.148   6.117
  216DIO     H912085  -0.007   0.218   6.123
  216DIO    H1012086  -0.146   0.203   6.018
  216DIO    H1112087  -0.205   0.241   6.264
  216DIO    H1212088  -0.163   0.044   6.417
  216DIO    H1312089  -0.015   0.124   6.363
  216DIO    H1412090  -0.295  -0.035   6.165
  216DIO    H1512091  -0.371   0.061   6.290
  216DIO    H1612092  -0.358   0.127   5.991
  216DIO    H1712093  -0.497   0.072   6.083
  216DIO    H1812094  -0.488   0.284   6.221
  216DIO    H1912095  -0.358   0.343   6.116
  216DIO    H2012096  -0.518   0.312   6.049
  217DIO     F112097   2.837   1.936   7.202
  217DIO     C112098   2.759   2.037   7.157
  217DIO     C212099   2.615   2.020   7.155
  217DIO     C312100   2.526   2.128   7.105
  217DIO     C412101   2.592   2.253   7.060
  217DIO     C512102   2.736   2.267   7.063
  217DIO     F212103   2.791   2.384   7.025
  217DIO     C612104   2.820   2.160   7.112
  217DIO     F312105   2.953   2.174   7.113
  217DIO     C712106   2.380   2.112   7.101
  217DIO     C812107   2.303   2.141   6.979
  217DIO     C912108   2.158   2.127   6.975
  217DIO    C1012109   2.085   2.092   7.096
  217DIO    C1112110   2.158   2.055   7.216
  217DIO    C1212111   2.302   2.067   7.219
  217DIO     F412112   2.367   2.038   7.333
  217DIO     O112113   1.953   2.056   7.079
  217DIO    C1312114   1.859   2.087   7.177
  217DIO     O212115   1.858   2.169   7.273
  217DIO    C1412116   1.730   2.022   7.153
  217DIO    C1512117   1.663   2.026   7.021
  217DIO     F512118   1.726   2.084   6.916
  217DIO    C1612119   1.532   1.968   6.996
  217DIO    C1712120   1.457   1.908   7.106
  217DIO    C1812121   1.525   1.887   7.232
  217DIO    C1912122   1.657   1.944   7.256
  217DIO     F612123   1.720   1.908   7.370
  217DIO    C2012124   1.316   1.858   7.085
  217DIO     O312125   1.246   1.923   6.978
  217DIO    C2112126   1.203   2.054   7.013
  217DIO    C2212127   1.114   2.050   7.137
  217DIO    C2312128   1.194   1.982   7.247
  217DIO     O412129   1.239   1.853   7.205
  217DIO    C2412130   0.981   1.975   7.114
  217DIO    C2512131   0.890   2.031   7.004
  217DIO    C2612132   0.852   2.176   7.024
  217DIO     H112133   2.572   1.927   7.191
  217DIO     H212134   2.531   2.338   7.032
  217DIO     H312135   2.354   2.170   6.888
  217DIO     H412136   2.103   2.140   6.883
  217DIO     H512137   2.103   2.024   7.304
  217DIO     H612138   1.494   1.968   6.895
  217DIO     H712139   1.483   1.824   7.309
  217DIO     H812140   1.326   1.753   7.053
  217DIO     H912141   1.289   2.119   7.030
  217DIO    H1012142   1.150   2.096   6.927
  217DIO    H1112143   1.091   2.153   7.169
  217DIO    H1212144   1.133   1.968   7.337
  217DIO    H1312145   1.281   2.043   7.277
  217DIO    H1412146   1.001   1.869   7.091
  217DIO    H1512147   0.924   1.975   7.208
  217DIO    H1612148   0.938   2.018   6.906
  217DIO    H1712149   0.798   1.970   7.001
  217DIO    H1812150   0.808   2.193   7.123
  217DIO    H1912151   0.938   2.242   7.013
  217DIO    H2012152   0.778   2.206   6.949
  218DIO     F112153   2.912   0.215   7.755
  218DIO     C112154   2.835   0.172   7.856
  218DIO     C212155   2.691   0.186   7.846
  218DIO     C312156   2.602   0.142   7.956
  218DIO     C412157   2.667   0.082   8.075
  218DIO     C512158   2.812   0.069   8.082
  218DIO     F212159   2.867   0.010   8.190
  218DIO     C612160   2.895   0.114   7.973
  218DIO     F312161   3.029   0.103   7.982
  218DIO     C712162   2.456   0.156   7.948
  218DIO     C812163   2.378   0.219   8.058
  218DIO     C912164   2.234   0.232   8.050
  218DIO    C1012165   2.161   0.174   7.939
  218DIO    C1112166   2.234   0.119   7.826
  218DIO    C1212167   2.378   0.108   7.832
  218DIO     F412168   2.443   0.051   7.728
  218DIO     O112169   2.029   0.211   7.926
  218DIO    C1312170   1.934   0.122   7.876
  218DIO     O212171   1.934  -0.003   7.862
  218DIO    C1412172   1.805   0.187   7.849
  218DIO    C1512173   1.739   0.274   7.948
  218DIO     F512174   1.802   0.304   8.064
  218DIO    C1612175   1.608   0.333   7.926
  218DIO    C1712176   1.532   0.301   7.806
  218DIO    C1812177   1.601   0.230   7.699
  218DIO    C1912178   1.733   0.173   7.720
  218DIO     F612179   1.795   0.120   7.613
  218DIO    C2012180   1.392   0.353   7.786
  218DIO     O312181   1.322   0.378   7.909
  218DIO    C2112182   1.278   0.259   7.973
  218DIO    C2212183   1.189   0.176   7.880
  218DIO    C2312184   1.270   0.151   7.753
  218DIO     O412185   1.314   0.273   7.695
  218DIO    C2412186   1.057   0.247   7.845
  218DIO    C2512187   0.966   0.282   7.963
  218DIO    C2612188   0.928   0.162   8.049
  218DIO     H112189   2.648   0.229   7.756
  218DIO     H212190   2.607   0.039   8.154
  218DIO     H312191   2.430   0.260   8.143
  218DIO     H412192   2.179   0.285   8.127
  218DIO     H512193   2.179   0.081   7.740
  218DIO     H612194   1.570   0.402   8.000
  218DIO     H712195   1.558   0.223   7.599
  218DIO     H812196   1.401   0.451   7.738
  218DIO     H912197   1.365   0.200   8.005
  218DIO    H1012198   1.226   0.287   8.064
  218DIO    H1112199   1.167   0.080   7.927
  218DIO    H1212200   1.209   0.099   7.678
  218DIO    H1312201   1.356   0.086   7.773
  218DIO    H1412202   1.077   0.340   7.789
  218DIO    H1512203   1.000   0.182   7.776
  218DIO    H1612204   1.013   0.358   8.026
  218DIO    H1712205   0.874   0.327   7.924
  218DIO    H1812206   0.884   0.082   7.987
  218DIO    H1912207   1.014   0.121   8.102
  218DIO    H2012208   0.854   0.192   8.124
  219DIO     F112209   2.974   7.952   8.260
  219DIO     C112210   2.896   8.046   8.203
  219DIO     C212211   2.752   8.029   8.203
  219DIO     C312212   2.663   8.129   8.139
  219DIO     C412213   2.729   8.247   8.078
  219DIO     C512214   2.873   8.262   8.079
  219DIO     F212215   2.929   8.372   8.026
  219DIO     C612216   2.957   8.162   8.141
  219DIO     F312217   3.091   8.176   8.141
  219DIO     C712218   2.517   8.113   8.137
  219DIO     C812219   2.440   8.126   8.012
  219DIO     C912220   2.295   8.111   8.010
  219DIO    C1012221   2.223   8.093   8.134
  219DIO    C1112222   2.295   8.072   8.258
  219DIO    C1212223   2.439   8.084   8.259
  219DIO     F412224   2.504   8.070   8.377
  219DIO     O112225   2.090   8.055   8.123
  219DIO    C1312226   1.996   8.098   8.215
  219DIO     O212227   1.995   8.192   8.299
  219DIO    C1412228   1.867   8.030   8.200
  219DIO    C1512229   1.800   8.018   8.068
  219DIO     F512230   1.863   8.061   7.957
  219DIO    C1612231   1.670   7.957   8.052
  219DIO    C1712232   1.594   7.912   8.168
  219DIO    C1812233   1.663   7.907   8.297
  219DIO    C1912234   1.794   7.967   8.312
  219DIO     F612235   1.857   7.946   8.430
  219DIO    C2012236   1.453   7.859   8.154
  219DIO     O312237   1.383   7.910   8.040
  219DIO    C2112238   1.340   8.044   8.057
  219DIO    C2212239   1.251   8.057   8.181
  219DIO    C2312240   1.332   8.003   8.299
  219DIO     O412241   1.376   7.870   8.274
  219DIO    C2412242   1.118   7.979   8.168
  219DIO    C2512243   1.027   8.020   8.051
  219DIO    C2612244   0.989   8.167   8.052
  219DIO     H112245   2.710   7.942   8.251
  219DIO     H212246   2.668   8.328   8.038
  219DIO     H312247   2.491   8.142   7.918
  219DIO     H412248   2.240   8.112   7.917
  219DIO     H512249   2.241   8.053   8.350
  219DIO     H612250   1.632   7.943   7.951
  219DIO     H712251   1.620   7.855   8.381
  219DIO     H812252   1.463   7.751   8.136
  219DIO     H912253   1.426   8.110   8.065
  219DIO    H1012254   1.287   8.074   7.967
  219DIO    H1112255   1.228   8.162   8.198
  219DIO    H1212256   1.271   8.002   8.390
  219DIO    H1312257   1.418   8.068   8.320
  219DIO    H1412258   1.138   7.871   8.159
  219DIO    H1512259   1.062   7.992   8.261
  219DIO    H1612260   1.075   7.995   7.956
  219DIO    H1712261   0.936   7.960   8.057
  219DIO    H1812262   0.945   8.196   8.148
  219DIO    H1912263   1.076   8.231   8.033
  219DIO    H2012264   0.915   8.187   7.974
  220DIO     F112265  10.974   5.268  10.015
  220DIO     C112266  10.897   5.166   9.974
  220DIO     C212267  10.753   5.176   9.988
  220DIO     C312268  10.664   5.065   9.947
  220DIO     C412269  10.729   4.945   9.890
  220DIO     C512270  10.874   4.937   9.878
  220DIO     F212271  10.929   4.828   9.822
  220DIO     C612272  10.957   5.047   9.919
  220DIO     F312273  11.091   5.038   9.908
  220DIO     C712274  10.517   5.073   9.961
  220DIO     C812275  10.440   4.965  10.026
  220DIO     C912276  10.296   4.973  10.039
  220DIO    C1012277  10.223   5.083   9.979
  220DIO    C1112278  10.295   5.195   9.920
  220DIO    C1212279  10.440   5.188   9.910
  220DIO     F412280  10.504   5.290   9.850
  220DIO     O112281  10.091   5.097  10.016
  220DIO    C1312282   9.996   5.144   9.925
  220DIO     O212283   9.995   5.155   9.800
  220DIO    C1412284   9.867   5.173   9.989
  220DIO    C1512285   9.801   5.076  10.078
  220DIO     F512286   9.863   4.961  10.112
  220DIO    C1612287   9.670   5.100  10.137
  220DIO    C1712288   9.594   5.220  10.102
  220DIO    C1812289   9.663   5.325  10.028
  220DIO    C1912290   9.795   5.301   9.971
  220DIO     F612291   9.857   5.408   9.916
  220DIO    C2012292   9.454   5.240  10.153
  220DIO     O312293   9.384   5.119  10.182
  220DIO    C2112294   9.340   5.051  10.064
  220DIO    C2212295   9.251   5.142   9.979
  220DIO    C2312296   9.332   5.268   9.950
  220DIO     O412297   9.376   5.329  10.071
  220DIO    C2412298   9.118   5.179  10.049
  220DIO    C2512299   9.028   5.061  10.087
  220DIO    C2612300   8.989   4.973   9.969
  220DIO     H112301  10.710   5.267  10.028
  220DIO     H212302  10.669   4.864   9.849
  220DIO     H312303  10.492   4.881  10.070
  220DIO     H412304  10.240   4.898  10.095
  220DIO     H512305  10.241   5.279   9.880
  220DIO     H612306   9.632   5.028  10.209
  220DIO     H712307   9.620   5.423  10.019
  220DIO     H812308   9.463   5.291  10.250
  220DIO     H912309   9.427   5.018  10.006
  220DIO    H1012310   9.287   4.961  10.095
  220DIO    H1112311   9.229   5.092   9.884
  220DIO    H1212312   9.271   5.342   9.897
  220DIO    H1312313   9.418   5.246   9.886
  220DIO    H1412314   9.138   5.237  10.140
  220DIO    H1512315   9.062   5.245   9.982
  220DIO    H1612316   9.075   5.000  10.165
  220DIO    H1712317   8.936   5.102  10.132
  220DIO    H1812318   8.945   5.032   9.888
  220DIO    H1912319   9.076   4.919   9.930
  220DIO    H2012320   8.916   4.898  10.001
  221DIO     F112321   6.254   0.324   1.913
  221DIO     C112322   6.177   0.252   1.829
  221DIO     C212323   6.032   0.255   1.845
  221DIO     C312324   5.944   0.177   1.757
  221DIO     C412325   6.009   0.098   1.650
  221DIO     C512326   6.153   0.096   1.636
  221DIO     F212327   6.209   0.026   1.535
  221DIO     C612328   6.237   0.174   1.724
  221DIO     F312329   6.371   0.171   1.710
  221DIO     C712330   5.797   0.177   1.773
  221DIO     C812331   5.720   0.051   1.780
  221DIO     C912332   5.575   0.052   1.795
  221DIO    C1012333   5.503   0.178   1.794
  221DIO    C1112334   5.575   0.303   1.795
  221DIO    C1212335   5.719   0.303   1.782
  221DIO     F412336   5.784   0.421   1.778
  221DIO     O112337   5.371   0.172   1.833
  221DIO    C1312338   5.276   0.257   1.775
  221DIO     O212339   5.275   0.325   1.670
  221DIO    C1412340   5.147   0.252   1.845
  221DIO    C1512341   5.081   0.124   1.878
  221DIO     F512342   5.143   0.007   1.853
  221DIO    C1612343   4.950   0.118   1.941
  221DIO    C1712344   4.874   0.240   1.967
  221DIO    C1812345   4.943   0.367   1.951
  221DIO    C1912346   5.075   0.373   1.890
  221DIO     F612347   5.137   0.493   1.892
  221DIO    C2012348   4.733   0.234   2.022
  221DIO     O312349   4.664   0.113   1.989
  221DIO    C2112350   4.620   0.110   1.854
  221DIO    C2212351   4.531   0.229   1.822
  221DIO    C2312352   4.612   0.354   1.856
  221DIO     O412353   4.656   0.351   1.991
  221DIO    C2412354   4.398   0.229   1.901
  221DIO    C2512355   4.308   0.107   1.879
  221DIO    C2612356   4.269   0.085   1.733
  221DIO     H112357   5.990   0.316   1.924
  221DIO     H212358   5.949   0.046   1.576
  221DIO     H312359   5.772  -0.044   1.779
  221DIO     H412360   5.520  -0.040   1.809
  221DIO     H512361   5.521   0.397   1.799
  221DIO     H612362   4.912   0.021   1.970
  221DIO     H712363   4.900   0.459   1.990
  221DIO     H812364   4.743   0.233   2.131
  221DIO     H912365   4.707   0.107   1.787
  221DIO    H1012366   4.567   0.015   1.838
  221DIO    H1112367   4.509   0.230   1.715
  221DIO    H1212368   4.551   0.444   1.843
  221DIO    H1312369   4.698   0.365   1.789
  221DIO    H1412370   4.418   0.237   2.008
  221DIO    H1512371   4.342   0.319   1.874
  221DIO    H1612372   4.355   0.017   1.919
  221DIO    H1712373   4.216   0.122   1.937
  221DIO    H1812374   4.225   0.175   1.690
  221DIO    H1912375   4.356   0.056   1.673
  221DIO    H2012376   4.196   0.004   1.726
  222DIO     F112377   5.078   2.534   8.067
  222DIO     C112378   5.001   2.490   7.967
  222DIO     C212379   4.857   2.488   7.983
  222DIO     C312380   4.768   2.438   7.876
  222DIO     C412381   4.833   2.393   7.751
  222DIO     C512382   4.978   2.396   7.737
  222DIO     F212383   5.033   2.358   7.620
  222DIO     C612384   5.061   2.445   7.844
  222DIO     F312385   5.195   2.446   7.829
  222DIO     C712386   4.621   2.434   7.892
  222DIO     C812387   4.544   2.311   7.862
  222DIO     C912388   4.400   2.308   7.877
  222DIO    C1012389   4.327   2.428   7.912
  222DIO    C1112390   4.400   2.549   7.949
  222DIO    C1212391   4.544   2.551   7.936
  222DIO     F412392   4.609   2.666   7.966
  222DIO     O112393   4.195   2.412   7.947
  222DIO    C1312394   4.100   2.510   7.917
  222DIO     O212395   4.099   2.605   7.835
  222DIO    C1412396   3.971   2.485   7.982
  222DIO    C1512397   3.905   2.353   7.977
  222DIO     F512398   3.968   2.248   7.920
  222DIO    C1612399   3.774   2.329   8.035
  222DIO    C1712400   3.698   2.438   8.095
  222DIO    C1812401   3.767   2.565   8.117
  222DIO    C1912402   3.899   2.588   8.060
  222DIO     F612403   3.961   2.703   8.096
  222DIO    C2012404   3.558   2.417   8.146
  222DIO     O312405   3.488   2.311   8.080
  222DIO    C2112406   3.444   2.346   7.950
  222DIO    C2212407   3.355   2.470   7.953
  222DIO    C2312408   3.436   2.580   8.022
  222DIO     O412409   3.480   2.537   8.151
  222DIO    C2412410   3.223   2.447   8.029
  222DIO    C2512411   3.132   2.337   7.973
  222DIO    C2612412   3.093   2.357   7.827
  222DIO     H112413   4.814   2.524   8.076
  222DIO     H212414   4.773   2.365   7.666
  222DIO     H312415   4.596   2.221   7.834
  222DIO     H412416   4.345   2.216   7.863
  222DIO     H512417   4.345   2.637   7.980
  222DIO     H612418   3.736   2.227   8.036
  222DIO     H712419   3.724   2.642   8.180
  222DIO     H812420   3.567   2.385   8.250
  222DIO     H912421   3.531   2.363   7.885
  222DIO    H1012422   3.391   2.260   7.907
  222DIO    H1112423   3.333   2.501   7.851
  222DIO    H1212424   3.375   2.670   8.036
  222DIO    H1312425   3.522   2.609   7.961
  222DIO    H1412426   3.242   2.424   8.134
  222DIO    H1512427   3.166   2.541   8.029
  222DIO    H1612428   3.179   2.239   7.985
  222DIO    H1712429   3.040   2.334   8.033
  222DIO    H1812430   3.050   2.456   7.811
  222DIO    H1912431   3.180   2.346   7.761
  222DIO    H2012432   3.020   2.282   7.797
  223DIO     F112433   3.868   5.054  -0.799
  223DIO     C112434   3.791   5.119  -0.710
  223DIO     C212435   3.647   5.117  -0.727
  223DIO     C312436   3.558   5.189  -0.633
  223DIO     C412437   3.623   5.260  -0.521
  223DIO     C512438   3.768   5.260  -0.506
  223DIO     F212439   3.823   5.323  -0.400
  223DIO     C612440   3.851   5.190  -0.600
  223DIO     F312441   3.985   5.191  -0.586
  223DIO     C712442   3.411   5.190  -0.649
  223DIO     C812443   3.334   5.316  -0.647
  223DIO     C912444   3.190   5.316  -0.662
  223DIO    C1012445   3.117   5.191  -0.670
  223DIO    C1112446   3.190   5.065  -0.680
  223DIO    C1212447   3.334   5.065  -0.667
  223DIO     F412448   3.399   4.947  -0.672
  223DIO     O112449   2.985   5.199  -0.708
  223DIO    C1312450   2.890   5.110  -0.657
  223DIO     O212451   2.889   5.035  -0.557
  223DIO    C1412452   2.761   5.120  -0.726
  223DIO    C1512453   2.695   5.250  -0.750
  223DIO     F512454   2.758   5.365  -0.717
  223DIO    C1612455   2.564   5.261  -0.812
  223DIO    C1712456   2.488   5.142  -0.847
  223DIO    C1812457   2.557   5.013  -0.841
  223DIO    C1912458   2.689   5.003  -0.780
  223DIO     F612459   2.751   4.883  -0.790
  223DIO    C2012460   2.348   5.151  -0.901
  223DIO     O312461   2.278   5.269  -0.860
  223DIO    C2112462   2.234   5.263  -0.725
  223DIO    C2212463   2.145   5.141  -0.702
  223DIO    C2312464   2.226   5.019  -0.745
  223DIO     O412465   2.270   5.033  -0.880
  223DIO    C2412466   2.013   5.147  -0.780
  223DIO    C2512467   1.922   5.267  -0.749
  223DIO    C2612468   1.883   5.279  -0.603
  223DIO     H112469   3.604   5.062  -0.810
  223DIO     H212470   3.563   5.306  -0.444
  223DIO     H312471   3.386   5.411  -0.639
  223DIO     H412472   3.135   5.409  -0.669
  223DIO     H512473   3.135   4.973  -0.691
  223DIO     H612474   2.526   5.360  -0.835
  223DIO     H712475   2.514   4.925  -0.886
  223DIO     H812476   2.357   5.160  -1.010
  223DIO     H912477   2.321   5.261  -0.658
  223DIO    H1012478   2.181   5.356  -0.702
  223DIO    H1112479   2.123   5.133  -0.595
  223DIO    H1212480   2.165   4.928  -0.739
  223DIO    H1312481   2.312   5.004  -0.679
  223DIO    H1412482   2.032   5.147  -0.888
  223DIO    H1512483   1.956   5.056  -0.760
  223DIO    H1612484   1.969   5.360  -0.783
  223DIO    H1712485   1.830   5.257  -0.809
  223DIO    H1812486   1.840   5.186  -0.566
  223DIO    H1912487   1.970   5.304  -0.541
  223DIO    H2012488   1.810   5.359  -0.590
  224DIO     F112489   4.779   5.186   8.640
  224DIO     C112490   4.702   5.235   8.738
  224DIO     C212491   4.558   5.236   8.721
  224DIO     C312492   4.469   5.292   8.826
  224DIO     C412493   4.534   5.343   8.948
  224DIO     C512494   4.679   5.341   8.963
  224DIO     F212495   4.734   5.385   9.077
  224DIO     C612496   4.762   5.287   8.858
  224DIO     F312497   4.896   5.286   8.872
  224DIO     C712498   4.323   5.295   8.810
  224DIO     C812499   4.245   5.419   8.833
  224DIO     C912500   4.101   5.422   8.818
  224DIO    C1012501   4.028   5.300   8.790
  224DIO    C1112502   4.101   5.178   8.759
  224DIO    C1212503   4.245   5.175   8.771
  224DIO     F412504   4.310   5.060   8.747
  224DIO     O112505   3.896   5.314   8.753
  224DIO    C1312506   3.801   5.218   8.788
  224DIO     O212507   3.801   5.127   8.875
  224DIO    C1412508   3.672   5.239   8.722
  224DIO    C1512509   3.606   5.371   8.720
  224DIO     F512510   3.669   5.479   8.772
  224DIO    C1612511   3.475   5.393   8.661
  224DIO    C1712512   3.399   5.281   8.607
  224DIO    C1812513   3.468   5.153   8.592
  224DIO    C1912514   3.600   5.132   8.650
  224DIO     F612515   3.662   5.016   8.620
  224DIO    C2012516   3.259   5.299   8.555
  224DIO     O312517   3.189   5.409   8.615
  224DIO    C2112518   3.145   5.380   8.747
  224DIO    C2212519   3.056   5.256   8.750
  224DIO    C2312520   3.137   5.143   8.687
  224DIO     O412521   3.181   5.178   8.557
  224DIO    C2412522   2.924   5.275   8.673
  224DIO    C2512523   2.833   5.388   8.724
  224DIO    C2612524   2.795   5.375   8.870
  224DIO     H112525   4.515   5.196   8.630
  224DIO     H212526   4.474   5.376   9.032
  224DIO     H312527   4.297   5.511   8.857
  224DIO     H412528   4.046   5.515   8.827
  224DIO     H512529   4.046   5.088   8.732
  224DIO     H612530   3.437   5.494   8.655
  224DIO     H712531   3.425   5.073   8.533
  224DIO     H812532   3.268   5.326   8.449
  224DIO     H912533   3.232   5.367   8.813
  224DIO    H1012534   3.093   5.468   8.785
  224DIO    H1112535   3.034   5.230   8.854
  224DIO    H1212536   3.076   5.052   8.678
  224DIO    H1312537   3.223   5.117   8.750
  224DIO    H1412538   2.944   5.293   8.567
  224DIO    H1512539   2.867   5.181   8.679
  224DIO    H1612540   2.880   5.485   8.707
  224DIO    H1712541   2.741   5.388   8.663
  224DIO    H1812542   2.751   5.277   8.891
  224DIO    H1912543   2.881   5.389   8.936
  224DIO    H2012544   2.721   5.452   8.896
  225DIO     F112545   7.039   0.738   3.987
  225DIO     C112546   6.962   0.662   4.067
  225DIO     C212547   6.818   0.679   4.062
  225DIO     C312548   6.729   0.600   4.151
  225DIO     C412549   6.794   0.502   4.241
  225DIO     C512550   6.939   0.488   4.244
  225DIO     F212551   6.994   0.395   4.325
  225DIO     C612552   7.022   0.567   4.157
  225DIO     F312553   7.156   0.554   4.161
  225DIO     C712554   6.583   0.615   4.148
  225DIO     C812555   6.505   0.636   4.273
  225DIO     C912556   6.361   0.651   4.270
  225DIO    C1012557   6.288   0.636   4.146
  225DIO    C1112558   6.361   0.623   4.020
  225DIO    C1212559   6.505   0.611   4.023
  225DIO     F412560   6.570   0.593   3.906
  225DIO     O112561   6.156   0.675   4.147
  225DIO    C1312562   6.061   0.609   4.069
  225DIO     O212563   6.061   0.496   4.013
  225DIO    C1412564   5.932   0.679   4.065
  225DIO    C1512565   5.866   0.726   4.189
  225DIO     F512566   5.929   0.714   4.308
  225DIO    C1612567   5.735   0.789   4.189
  225DIO    C1712568   5.659   0.801   4.065
  225DIO    C1812569   5.728   0.771   3.940
  225DIO    C1912570   5.860   0.710   3.940
  225DIO     F612571   5.922   0.698   3.821
  225DIO    C2012572   5.519   0.856   4.064
  225DIO     O312573   5.449   0.837   4.188
  225DIO    C2112574   5.405   0.703   4.207
  225DIO    C2212575   5.316   0.658   4.091
  225DIO    C2312576   5.397   0.678   3.963
  225DIO     O412577   5.441   0.813   3.951
  225DIO    C2412578   5.184   0.737   4.083
  225DIO    C2512579   5.093   0.728   4.206
  225DIO    C2612580   5.055   0.586   4.244
  225DIO     H112581   6.775   0.750   3.993
  225DIO     H212582   6.734   0.435   4.301
  225DIO     H312583   6.557   0.646   4.367
  225DIO     H412584   6.306   0.675   4.360
  225DIO     H512585   6.306   0.617   3.927
  225DIO     H612586   5.697   0.829   4.282
  225DIO     H712587   5.685   0.799   3.844
  225DIO     H812588   5.528   0.965   4.053
  225DIO     H912589   5.492   0.637   4.216
  225DIO    H1012590   5.353   0.698   4.302
  225DIO    H1112591   5.294   0.552   4.102
  225DIO    H1212592   5.336   0.656   3.875
  225DIO    H1312593   5.483   0.610   3.960
  225DIO    H1412594   5.204   0.843   4.062
  225DIO    H1512595   5.127   0.699   3.996
  225DIO    H1612596   5.140   0.778   4.291
  225DIO    H1712597   5.001   0.785   4.185
  225DIO    H1812598   5.011   0.533   4.160
  225DIO    H1912599   5.141   0.530   4.280
  225DIO    H2012600   4.981   0.588   4.325
  226DIO     F112601   3.411   0.172   0.905
  226DIO     C112602   3.333   0.261   0.840
  226DIO     C212603   3.189   0.244   0.842
  226DIO     C312604   3.100   0.339   0.771
  226DIO     C412605   3.166   0.452   0.701
  226DIO     C512606   3.310   0.467   0.701
  226DIO     F212607   3.365   0.573   0.640
  226DIO     C612608   3.394   0.372   0.771
  226DIO     F312609   3.527   0.386   0.769
  226DIO     C712610   2.954   0.323   0.770
  226DIO     C812611   2.877   0.327   0.644
  226DIO     C912612   2.732   0.311   0.643
  226DIO    C1012613   2.659   0.302   0.769
  226DIO    C1112614   2.732   0.291   0.894
  226DIO    C1212615   2.876   0.303   0.894
  226DIO     F412616   2.941   0.298   1.012
  226DIO     O112617   2.527   0.264   0.760
  226DIO    C1312618   2.433   0.314   0.849
  226DIO     O212619   2.432   0.414   0.926
  226DIO    C1412620   2.303   0.245   0.839
  226DIO    C1512621   2.237   0.223   0.709
  226DIO     F512622   2.300   0.257   0.594
  226DIO    C1612623   2.106   0.161   0.697
  226DIO    C1712624   2.031   0.124   0.816
  226DIO    C1812625   2.099   0.130   0.945
  226DIO    C1912626   2.231   0.190   0.956
  226DIO     F612627   2.293   0.179   1.075
  226DIO    C2012628   1.890   0.071   0.806
  226DIO     O312629   1.820   0.113   0.688
  226DIO    C2112630   1.776   0.248   0.696
  226DIO    C2212631   1.688   0.270   0.818
  226DIO    C2312632   1.768   0.226   0.940
  226DIO     O412633   1.813   0.091   0.925
  226DIO    C2412634   1.555   0.191   0.811
  226DIO    C2512635   1.464   0.223   0.692
  226DIO    C2612636   1.426   0.370   0.681
  226DIO     H112637   3.146   0.161   0.896
  226DIO     H212638   3.105   0.530   0.656
  226DIO     H312639   2.928   0.335   0.549
  226DIO     H412640   2.677   0.306   0.551
  226DIO     H512641   2.677   0.279   0.987
  226DIO     H612642   2.068   0.139   0.598
  226DIO     H712643   2.056   0.084   1.033
  226DIO     H812644   1.900  -0.038   0.796
  226DIO     H912645   1.863   0.315   0.699
  226DIO    H1012646   1.724   0.271   0.603
  226DIO    H1112647   1.665   0.377   0.828
  226DIO    H1212648   1.707   0.231   1.030
  226DIO    H1312649   1.854   0.292   0.956
  226DIO    H1412650   1.575   0.083   0.810
  226DIO    H1512651   1.498   0.211   0.903
  226DIO    H1612652   1.511   0.191   0.598
  226DIO    H1712653   1.372   0.164   0.701
  226DIO    H1812654   1.382   0.406   0.775
  226DIO    H1912655   1.512   0.433   0.657
  226DIO    H2012656   1.352   0.384   0.602
  227DIO     F112657  10.291   1.718   7.486
  227DIO     C112658  10.213   1.609   7.496
  227DIO     C212659  10.069   1.624   7.503
  227DIO     C312660   9.980   1.506   7.516
  227DIO     C412661  10.046   1.374   7.519
  227DIO     C512662  10.190   1.361   7.512
  227DIO     F212663  10.246   1.238   7.511
  227DIO     C612664  10.274   1.478   7.500
  227DIO     F312665  10.408   1.465   7.494
  227DIO     C712666   9.834   1.520   7.525
  227DIO     C812667   9.757   1.453   7.632
  227DIO     C912668   9.612   1.465   7.640
  227DIO    C1012669   9.540   1.537   7.537
  227DIO    C1112670   9.612   1.610   7.435
  227DIO    C1212671   9.756   1.600   7.428
  227DIO     F412672   9.821   1.664   7.329
  227DIO     O112673   9.407   1.565   7.564
  227DIO    C1312674   9.313   1.568   7.461
  227DIO     O212675   9.312   1.521   7.345
  227DIO    C1412676   9.184   1.622   7.505
  227DIO    C1512677   9.117   1.575   7.629
  227DIO     F512678   9.180   1.487   7.710
  227DIO    C1612679   8.987   1.622   7.671
  227DIO    C1712680   8.911   1.714   7.586
  227DIO    C1812681   8.980   1.775   7.473
  227DIO    C1912682   9.111   1.729   7.432
  227DIO     F612683   9.174   1.799   7.336
  227DIO    C2012684   8.770   1.756   7.622
  227DIO     O312685   8.700   1.659   7.702
  227DIO    C2112686   8.657   1.547   7.627
  227DIO    C2212687   8.568   1.590   7.511
  227DIO    C2312688   8.649   1.690   7.428
  227DIO     O412689   8.693   1.798   7.510
  227DIO    C2412690   8.435   1.654   7.557
  227DIO    C2512691   8.344   1.566   7.643
  227DIO    C2612692   8.306   1.434   7.578
  227DIO     H112693  10.027   1.724   7.499
  227DIO     H212694   9.985   1.283   7.519
  227DIO     H312695   9.808   1.397   7.709
  227DIO     H412696   9.557   1.423   7.723
  227DIO     H512697   9.558   1.668   7.361
  227DIO     H612698   8.949   1.591   7.767
  227DIO     H712699   8.937   1.859   7.420
  227DIO     H812700   8.780   1.844   7.686
  227DIO     H912701   8.743   1.491   7.591
  227DIO    H1012702   8.604   1.479   7.695
  227DIO    H1112703   8.545   1.503   7.448
  227DIO    H1212704   8.588   1.732   7.348
  227DIO    H1312705   8.735   1.641   7.381
  227DIO    H1412706   8.455   1.747   7.612
  227DIO    H1512707   8.379   1.684   7.467
  227DIO    H1612708   8.392   1.546   7.740
  227DIO    H1712709   8.253   1.622   7.665
  227DIO    H1812710   8.262   1.451   7.479
  227DIO    H1912711   8.393   1.368   7.567
  227DIO    H2012712   8.232   1.382   7.639
  228DIO     F112713  10.851  -0.493   9.639
  228DIO     C112714  10.774  -0.384   9.653
  228DIO     C212715  10.630  -0.397   9.643
  228DIO     C312716  10.541  -0.280   9.655
  228DIO     C412717  10.606  -0.149   9.682
  228DIO     C512718  10.751  -0.139   9.692
  228DIO     F212719  10.806  -0.019   9.720
  228DIO     C612720  10.834  -0.255   9.678
  228DIO     F312721  10.968  -0.244   9.686
  228DIO     C712722  10.394  -0.291   9.644
  228DIO     C812723  10.317  -0.202   9.554
  228DIO     C912724  10.173  -0.213   9.544
  228DIO    C1012725  10.100  -0.305   9.629
  228DIO    C1112726  10.173  -0.399   9.712
  228DIO    C1212727  10.317  -0.390   9.721
  228DIO     F412728  10.382  -0.475   9.804
  228DIO     O112729   9.968  -0.327   9.596
  228DIO    C1312730   9.873  -0.352   9.696
  228DIO     O212731   9.872  -0.331   9.820
  228DIO    C1412732   9.744  -0.395   9.641
  228DIO    C1512733   9.678  -0.322   9.531
  228DIO     F512734   9.741  -0.219   9.471
  228DIO    C1612735   9.547  -0.359   9.480
  228DIO    C1712736   9.471  -0.467   9.542
  228DIO    C1812737   9.540  -0.551   9.639
  228DIO    C1912738   9.672  -0.515   9.689
  228DIO     F612739   9.734  -0.605   9.768
  228DIO    C2012740   9.331  -0.500   9.498
  228DIO     O312741   9.261  -0.388   9.441
  228DIO    C2112742   9.217  -0.295   9.539
  228DIO    C2212743   9.128  -0.362   9.643
  228DIO    C2312744   9.209  -0.478   9.701
  228DIO     O412745   9.253  -0.566   9.598
  228DIO    C2412746   8.996  -0.415   9.584
  228DIO    C2512747   8.905  -0.310   9.519
  228DIO    C2612748   8.866  -0.196   9.612
  228DIO     H112749  10.587  -0.496   9.625
  228DIO     H212750  10.546  -0.062   9.702
  228DIO     H312751  10.369  -0.131   9.491
  228DIO     H412752  10.118  -0.154   9.472
  228DIO     H512753  10.118  -0.471   9.772
  228DIO     H612754   9.509  -0.307   9.393
  228DIO     H712755   9.497  -0.645   9.672
  228DIO     H812756   9.340  -0.572   9.416
  228DIO     H912757   9.304  -0.248   9.586
  228DIO    H1012758   9.164  -0.214   9.487
  228DIO    H1112759   9.106  -0.291   9.723
  228DIO    H1212760   9.148  -0.536   9.771
  228DIO    H1312761   9.295  -0.441   9.758
  228DIO    H1412762   9.015  -0.493   9.509
  228DIO    H1512763   8.939  -0.464   9.664
  228DIO    H1612764   8.952  -0.270   9.429
  228DIO    H1712765   8.813  -0.360   9.485
  228DIO    H1812766   8.823  -0.233   9.704
  228DIO    H1912767   8.953  -0.134   9.637
  228DIO    H2012768   8.793  -0.131   9.563
  229DIO     F112769   4.444  -0.392   9.445
  229DIO     C112770   4.367  -0.295   9.395
  229DIO     C212771   4.222  -0.312   9.394
  229DIO     C312772   4.134  -0.208   9.337
  229DIO     C412773   4.199  -0.086   9.284
  229DIO     C512774   4.343  -0.071   9.286
  229DIO     F212775   4.399   0.043   9.240
  229DIO     C612776   4.427  -0.175   9.341
  229DIO     F312777   4.561  -0.161   9.342
  229DIO     C712778   3.987  -0.223   9.334
  229DIO     C812779   3.910  -0.202   9.209
  229DIO     C912780   3.765  -0.217   9.207
  229DIO    C1012781   3.693  -0.244   9.329
  229DIO    C1112782   3.765  -0.273   9.452
  229DIO    C1212783   3.909  -0.260   9.454
  229DIO     F412784   3.974  -0.283   9.570
  229DIO     O112785   3.561  -0.280   9.315
  229DIO    C1312786   3.466  -0.244   9.411
  229DIO     O212787   3.465  -0.156   9.501
  229DIO    C1412788   3.337  -0.310   9.391
  229DIO    C1512789   3.271  -0.314   9.259
  229DIO     F512790   3.333  -0.264   9.150
  229DIO    C1612791   3.140  -0.373   9.238
  229DIO    C1712792   3.064  -0.426   9.351
  229DIO    C1812793   3.133  -0.440   9.479
  229DIO    C1912794   3.265  -0.381   9.499
  229DIO     F612795   3.327  -0.410   9.615
  229DIO    C2012796   2.923  -0.478   9.333
  229DIO     O312797   2.854  -0.420   9.223
  229DIO    C2112798   2.810  -0.287   9.250
  229DIO    C2212799   2.721  -0.283   9.373
  229DIO    C2312800   2.802  -0.344   9.488
  229DIO     O412801   2.846  -0.475   9.454
  229DIO    C2412802   2.588  -0.360   9.355
  229DIO    C2512803   2.498  -0.311   9.242
  229DIO    C2612804   2.459  -0.164   9.253
  229DIO     H112805   4.180  -0.402   9.435
  229DIO     H212806   4.139  -0.002   9.250
  229DIO     H312807   3.962  -0.179   9.117
  229DIO     H412808   3.710  -0.209   9.114
  229DIO     H512809   3.711  -0.298   9.542
  229DIO     H612810   3.102  -0.381   9.137
  229DIO     H712811   3.090  -0.498   9.560
  229DIO     H812812   2.933  -0.585   9.308
  229DIO     H912813   2.897  -0.221   9.262
  229DIO    H1012814   2.757  -0.251   9.161
  229DIO    H1112815   2.699  -0.178   9.398
  229DIO    H1212816   2.741  -0.352   9.578
  229DIO    H1312817   2.888  -0.281   9.513
  229DIO    H1412818   2.608  -0.466   9.339
  229DIO    H1512819   2.532  -0.353   9.449
  229DIO    H1612820   2.545  -0.329   9.145
  229DIO    H1712821   2.406  -0.371   9.243
  229DIO    H1812822   2.415  -0.142   9.350
  229DIO    H1912823   2.546  -0.099   9.238
  229DIO    H2012824   2.386  -0.139   9.176
  230DIO     F112825   8.996   1.781   4.854
  230DIO     C112826   8.918   1.718   4.944
  230DIO     C212827   8.774   1.733   4.937
  230DIO     C312828   8.685   1.667   5.035
  230DIO     C412829   8.751   1.583   5.138
  230DIO     C512830   8.895   1.569   5.143
  230DIO     F212831   8.950   1.489   5.236
  230DIO     C612832   8.979   1.636   5.046
  230DIO     F312833   9.113   1.623   5.052
  230DIO     C712834   8.539   1.682   5.030
  230DIO     C812835   8.462   1.720   5.151
  230DIO     C912836   8.317   1.735   5.146
  230DIO    C1012837   8.244   1.702   5.025
  230DIO    C1112838   8.317   1.672   4.903
  230DIO    C1212839   8.461   1.660   4.907
  230DIO     F412840   8.526   1.627   4.793
  230DIO     O112841   8.112   1.741   5.021
  230DIO    C1312842   8.018   1.665   4.953
  230DIO     O212843   8.017   1.546   4.913
  230DIO    C1412844   7.889   1.733   4.940
  230DIO    C1512845   7.822   1.797   5.056
  230DIO     F512846   7.885   1.802   5.175
  230DIO    C1612847   7.692   1.859   5.046
  230DIO    C1712848   7.616   1.855   4.922
  230DIO    C1812849   7.685   1.808   4.802
  230DIO    C1912850   7.816   1.747   4.811
  230DIO     F612851   7.879   1.719   4.695
  230DIO    C2012852   7.475   1.909   4.914
  230DIO     O312853   7.405   1.908   5.039
  230DIO    C2112854   7.362   1.777   5.076
  230DIO    C2212855   7.273   1.717   4.968
  230DIO    C2312856   7.354   1.719   4.838
  230DIO     O412857   7.398   1.851   4.808
  230DIO    C2412858   7.140   1.793   4.949
  230DIO    C2512859   7.049   1.802   5.072
  230DIO    C2612860   7.011   1.667   5.130
  230DIO     H112861   8.731   1.794   4.858
  230DIO     H212862   8.690   1.524   5.206
  230DIO     H312863   8.513   1.743   5.243
  230DIO     H412864   8.262   1.771   5.232
  230DIO     H512865   8.263   1.653   4.811
  230DIO     H612866   7.653   1.912   5.133
  230DIO     H712867   7.642   1.822   4.704
  230DIO     H812868   7.485   2.015   4.888
  230DIO     H912869   7.448   1.713   5.095
  230DIO    H1012870   7.309   1.786   5.171
  230DIO    H1112871   7.250   1.613   4.994
  230DIO    H1212872   7.292   1.684   4.754
  230DIO    H1312873   7.440   1.651   4.845
  230DIO    H1412874   7.160   1.896   4.914
  230DIO    H1512875   7.084   1.745   4.868
  230DIO    H1612876   7.097   1.863   5.150
  230DIO    H1712877   6.958   1.855   5.043
  230DIO    H1812878   6.967   1.602   5.053
  230DIO    H1912879   7.097   1.616   5.173
  230DIO    H2012880   6.937   1.680   5.210
  231DIO     F112881   6.161   8.079   4.290
  231DIO     C112882   6.084   8.014   4.201
  231DIO     C212883   5.940   8.016   4.218
  231DIO     C312884   5.851   7.944   4.124
  231DIO     C412885   5.916   7.873   4.012
  231DIO     C512886   6.061   7.873   3.997
  231DIO     F212887   6.116   7.811   3.891
  231DIO     C612888   6.144   7.944   4.091
  231DIO     F312889   6.278   7.942   4.077
  231DIO     C712890   5.704   7.943   4.140
  231DIO     C812891   5.627   7.817   4.138
  231DIO     C912892   5.483   7.817   4.153
  231DIO    C1012893   5.410   7.942   4.161
  231DIO    C1112894   5.483   8.068   4.171
  231DIO    C1212895   5.627   8.068   4.159
  231DIO     F412896   5.692   8.186   4.163
  231DIO     O112897   5.278   7.934   4.199
  231DIO    C1312898   5.183   8.023   4.149
  231DIO     O212899   5.182   8.099   4.048
  231DIO    C1412900   5.054   8.013   4.218
  231DIO    C1512901   4.988   7.883   4.241
  231DIO     F512902   5.051   7.768   4.208
  231DIO    C1612903   4.857   7.871   4.303
  231DIO    C1712904   4.781   7.991   4.338
  231DIO    C1812905   4.850   8.119   4.332
  231DIO    C1912906   4.982   8.130   4.271
  231DIO     F612907   5.044   8.250   4.282
  231DIO    C2012908   4.641   7.981   4.392
  231DIO     O312909   4.571   7.863   4.351
  231DIO    C2112910   4.527   7.870   4.216
  231DIO    C2212911   4.438   7.992   4.193
  231DIO    C2312912   4.519   8.114   4.236
  231DIO     O412913   4.563   8.100   4.371
  231DIO    C2412914   4.306   7.985   4.272
  231DIO    C2512915   4.215   7.866   4.240
  231DIO    C2612916   4.176   7.854   4.094
  231DIO     H112917   5.897   8.071   4.301
  231DIO     H212918   5.856   7.827   3.934
  231DIO     H312919   5.679   7.722   4.130
  231DIO     H412920   5.428   7.724   4.160
  231DIO     H512921   5.428   8.160   4.183
  231DIO     H612922   4.819   7.773   4.325
  231DIO     H712923   4.807   8.208   4.377
  231DIO     H812924   4.650   7.972   4.501
  231DIO     H912925   4.614   7.872   4.149
  231DIO    H1012926   4.474   7.777   4.193
  231DIO    H1112927   4.416   8.000   4.086
  231DIO    H1212928   4.458   8.204   4.230
  231DIO    H1312929   4.605   8.129   4.170
  231DIO    H1412930   4.325   7.985   4.379
  231DIO    H1512931   4.249   8.077   4.251
  231DIO    H1612932   4.262   7.773   4.273
  231DIO    H1712933   4.123   7.876   4.300
  231DIO    H1812934   4.133   7.947   4.057
  231DIO    H1912935   4.263   7.830   4.032
  231DIO    H2012936   4.103   7.774   4.081
  232DIO     F112937   2.209   8.732   5.917
  232DIO     C112938   2.132   8.811   5.841
  232DIO     C212939   1.987   8.795   5.845
  232DIO     C312940   1.899   8.879   5.761
  232DIO     C412941   1.964   8.981   5.677
  232DIO     C512942   2.108   8.996   5.675
  232DIO     F212943   2.164   9.093   5.599
  232DIO     C612944   2.192   8.912   5.757
  232DIO     F312945   2.326   8.925   5.753
  232DIO     C712946   1.752   8.863   5.763
  232DIO     C812947   1.675   8.849   5.637
  232DIO     C912948   1.530   8.834   5.639
  232DIO    C1012949   1.458   8.842   5.764
  232DIO    C1112950   1.530   8.848   5.890
  232DIO    C1212951   1.674   8.861   5.888
  232DIO     F412952   1.739   8.871   6.006
  232DIO     O112953   1.326   8.803   5.761
  232DIO    C1312954   1.231   8.865   5.843
  232DIO     O212955   1.230   8.974   5.905
  232DIO    C1412956   1.102   8.795   5.842
  232DIO    C1512957   1.036   8.755   5.716
  232DIO     F512958   1.098   8.773   5.598
  232DIO    C1612959   0.905   8.692   5.713
  232DIO    C1712960   0.829   8.673   5.836
  232DIO    C1812961   0.898   8.696   5.962
  232DIO    C1912962   1.030   8.757   5.965
  232DIO     F612963   1.092   8.762   6.085
  232DIO    C2012964   0.688   8.618   5.833
  232DIO     O312965   0.619   8.644   5.711
  232DIO    C2112966   0.575   8.779   5.700
  232DIO    C2212967   0.486   8.817   5.817
  232DIO    C2312968   0.567   8.790   5.944
  232DIO     O412969   0.611   8.654   5.948
  232DIO    C2412970   0.353   8.738   5.821
  232DIO    C2512971   0.263   8.754   5.699
  232DIO    C2612972   0.224   8.898   5.668
  232DIO     H112973   1.945   8.720   5.910
  232DIO     H212974   1.904   9.052   5.621
  232DIO     H312975   1.727   8.845   5.542
  232DIO     H412976   1.475   8.816   5.548
  232DIO     H512977   1.476   8.849   5.983
  232DIO     H612978   0.867   8.657   5.617
  232DIO     H712979   0.855   8.662   6.056
  232DIO     H812980   0.698   8.509   5.838
  232DIO     H912981   0.662   8.845   5.693
  232DIO    H1012982   0.522   8.789   5.604
  232DIO    H1112983   0.464   8.924   5.812
  232DIO    H1212984   0.506   8.807   6.033
  232DIO    H1312985   0.653   8.857   5.951
  232DIO    H1412986   0.373   8.631   5.835
  232DIO    H1512987   0.297   8.770   5.910
  232DIO    H1612988   0.310   8.709   5.611
  232DIO    H1712989   0.171   8.696   5.717
  232DIO    H1812990   0.180   8.946   5.756
  232DIO    H1912991   0.311   8.956   5.636
  232DIO    H2012992   0.151   8.900   5.588
  233DIO     F112993   1.415   4.761   8.165
  233DIO     C112994   1.338   4.731   8.271
  233DIO     C212995   1.193   4.743   8.259
  233DIO     C312996   1.105   4.713   8.374
  233DIO     C412997   1.170   4.668   8.499
  233DIO     C512998   1.314   4.657   8.508
  233DIO     F212999   1.370   4.611   8.622
  233DIO     C613000   1.398   4.687   8.395
  233DIO     F313001   1.532   4.677   8.405
  233DIO     C713002   0.958   4.726   8.364
  233DIO     C813003   0.881   4.802   8.466
  233DIO     C913004   0.736   4.814   8.457
  233DIO    C1013005   0.664   4.743   8.353
  233DIO    C1113006   0.736   4.674   8.247
  233DIO    C1213007   0.880   4.664   8.255
  233DIO     F413008   0.945   4.595   8.159
  233DIO     O113009   0.532   4.779   8.336
  233DIO    C1313010   0.437   4.684   8.297
  233DIO     O213011   0.436   4.558   8.299
  233DIO    C1413012   0.308   4.745   8.262
  233DIO    C1513013   0.242   4.843   8.350
  233DIO     F513014   0.304   4.887   8.461
  233DIO    C1613015   0.111   4.899   8.321
  233DIO    C1713016   0.035   4.853   8.205
  233DIO    C1813017   0.104   4.769   8.108
  233DIO    C1913018   0.236   4.715   8.136
  233DIO     F613019   0.298   4.650   8.036
  233DIO    C2013020  -0.106   4.902   8.180
  233DIO     O313021  -0.175   4.942   8.298
  233DIO    C2113022  -0.219   4.831   8.376
  233DIO    C2213023  -0.308   4.738   8.294
  233DIO    C2313024  -0.227   4.697   8.171
  233DIO     O413025  -0.183   4.812   8.099
  233DIO    C2413026  -0.441   4.804   8.251
  233DIO    C2513027  -0.531   4.853   8.364
  233DIO    C2613028  -0.570   4.744   8.463
  233DIO     H113029   1.151   4.775   8.165
  233DIO     H213030   1.110   4.635   8.583
  233DIO     H313031   0.933   4.854   8.545
  233DIO     H413032   0.681   4.876   8.526
  233DIO     H513033   0.682   4.626   8.167
  233DIO     H613034   0.073   4.977   8.385
  233DIO     H713035   0.061   4.751   8.010
  233DIO     H813036  -0.096   4.993   8.120
  233DIO     H913037  -0.132   4.777   8.415
  233DIO    H1013038  -0.272   4.870   8.463
  233DIO    H1113039  -0.330   4.648   8.353
  233DIO    H1213040  -0.288   4.637   8.103
  233DIO    H1313041  -0.141   4.636   8.199
  233DIO    H1413042  -0.421   4.889   8.184
  233DIO    H1513043  -0.497   4.731   8.191
  233DIO    H1613044  -0.484   4.936   8.417
  233DIO    H1713045  -0.623   4.894   8.320
  233DIO    H1813046  -0.614   4.658   8.412
  233DIO    H1913047  -0.483   4.710   8.521
  233DIO    H2013048  -0.643   4.783   8.534
  234DIO     F113049  10.151   7.314   4.453
  234DIO     C113050  10.073   7.341   4.560
  234DIO     C213051   9.929   7.345   4.544
  234DIO     C313052   9.841   7.377   4.658
  234DIO     C413053   9.906   7.400   4.789
  234DIO     C513054  10.050   7.395   4.802
  234DIO     F213055  10.106   7.412   4.924
  234DIO     C613056  10.134   7.365   4.689
  234DIO     F313057  10.268   7.361   4.703
  234DIO     C713058   9.694   7.383   4.643
  234DIO     C813059   9.617   7.499   4.693
  234DIO     C913060   9.472   7.505   4.679
  234DIO    C1013061   9.400   7.392   4.625
  234DIO    C1113062   9.472   7.280   4.568
  234DIO    C1213063   9.616   7.275   4.579
  234DIO     F413064   9.681   7.167   4.531
  234DIO     O113065   9.268   7.414   4.592
  234DIO    C1313066   9.173   7.313   4.606
  234DIO     O213067   9.172   7.205   4.670
  234DIO    C1413068   9.044   7.348   4.546
  234DIO    C1513069   8.978   7.477   4.573
  234DIO     F513070   9.040   7.571   4.647
  234DIO    C1613071   8.847   7.511   4.520
  234DIO    C1713072   8.771   7.414   4.442
  234DIO    C1813073   8.840   7.292   4.399
  234DIO    C1913074   8.971   7.260   4.451
  234DIO     F613075   9.034   7.153   4.397
  234DIO    C2013076   8.630   7.443   4.396
  234DIO     O313077   8.561   7.537   4.478
  234DIO    C2113078   8.517   7.480   4.601
  234DIO    C2213079   8.428   7.358   4.577
  234DIO    C2313080   8.509   7.261   4.490
  234DIO     O413081   8.553   7.325   4.371
  234DIO    C2413082   8.295   7.394   4.506
  234DIO    C2513083   8.205   7.493   4.580
  234DIO    C2613084   8.166   7.448   4.720
  234DIO     H113085   9.887   7.326   4.446
  234DIO     H213086   9.845   7.413   4.878
  234DIO     H313087   9.669   7.584   4.737
  234DIO     H413088   9.417   7.594   4.708
  234DIO     H513089   9.418   7.198   4.522
  234DIO     H613090   8.809   7.611   4.536
  234DIO     H713091   8.797   7.227   4.324
  234DIO     H813092   8.640   7.492   4.298
  234DIO     H913093   8.604   7.452   4.662
  234DIO    H1013094   8.464   7.558   4.657
  234DIO    H1113095   8.406   7.310   4.672
  234DIO    H1213096   8.448   7.175   4.462
  234DIO    H1313097   8.595   7.222   4.546
  234DIO    H1413098   8.315   7.434   4.406
  234DIO    H1513099   8.239   7.301   4.490
  234DIO    H1613100   8.252   7.591   4.584
  234DIO    H1713101   8.113   7.506   4.521
  234DIO    H1813102   8.122   7.348   4.719
  234DIO    H1913103   8.253   7.448   4.787
  234DIO    H2013104   8.093   7.517   4.762
  235DIO     F113105   8.913   3.531  10.724
  235DIO     C113106   8.836   3.639  10.743
  235DIO     C213107   8.691   3.626  10.732
  235DIO     C313108   8.603   3.744  10.750
  235DIO     C413109   8.668   3.873  10.782
  235DIO     C513110   8.812   3.883  10.792
  235DIO     F213111   8.868   4.001  10.825
  235DIO     C613112   8.896   3.767  10.774
  235DIO     F313113   9.030   3.778  10.783
  235DIO     C713114   8.456   3.733  10.738
  235DIO     C813115   8.379   3.825  10.652
  235DIO     C913116   8.234   3.815  10.641
  235DIO    C1013117   8.162   3.719  10.722
  235DIO    C1113118   8.234   3.622  10.802
  235DIO    C1213119   8.378   3.631  10.811
  235DIO     F413120   8.443   3.542  10.890
  235DIO     O113121   8.030   3.699  10.689
  235DIO    C1313122   7.935   3.670  10.787
  235DIO     O213123   7.934   3.685  10.912
  235DIO    C1413124   7.806   3.629  10.731
  235DIO    C1513125   7.740   3.707  10.623
  235DIO     F513126   7.802   3.812  10.568
  235DIO    C1613127   7.609   3.672  10.571
  235DIO    C1713128   7.533   3.561  10.628
  235DIO    C1813129   7.602   3.473  10.722
  235DIO    C1913130   7.734   3.507  10.773
  235DIO     F613131   7.796   3.414  10.848
  235DIO    C2013132   7.392   3.531  10.583
  235DIO     O313133   7.323   3.644  10.531
  235DIO    C2113134   7.279   3.733  10.633
  235DIO    C2213135   7.190   3.662  10.734
  235DIO    C2313136   7.271   3.543  10.787
  235DIO     O413137   7.315   3.460  10.681
  235DIO    C2413138   7.057   3.612  10.673
  235DIO    C2513139   6.967   3.719  10.612
  235DIO    C2613140   6.928   3.829  10.710
  235DIO     H113141   8.649   3.529  10.710
  235DIO     H213142   8.608   3.959  10.806
  235DIO     H313143   8.431   3.899  10.593
  235DIO     H413144   8.179   3.878  10.572
  235DIO     H513145   8.180   3.547  10.858
  235DIO     H613146   7.571   3.727  10.486
  235DIO     H713147   7.559   3.378  10.751
  235DIO     H813148   7.402   3.461  10.498
  235DIO     H913149   7.366   3.778  10.683
  235DIO    H1013150   7.226   3.816  10.584
  235DIO    H1113151   7.168   3.729  10.817
  235DIO    H1213152   7.210   3.482  10.854
  235DIO    H1313153   7.357   3.578  10.846
  235DIO    H1413154   7.077   3.537  10.595
  235DIO    H1513155   7.001   3.560  10.751
  235DIO    H1613156   7.014   3.763  10.524
  235DIO    H1713157   6.875   3.671  10.576
  235DIO    H1813158   6.884   3.788  10.801
  235DIO    H1913159   7.015   3.890  10.738
  235DIO    H2013160   6.855   3.896  10.664
  236DIO     F113161   2.352   0.236   5.291
  236DIO     C113162   2.274   0.131   5.259
  236DIO     C213163   2.130   0.142   5.271
  236DIO     C313164   2.041   0.028   5.239
  236DIO     C413165   2.107  -0.096   5.191
  236DIO     C513166   2.251  -0.105   5.180
  236DIO     F213167   2.307  -0.218   5.132
  236DIO     C613168   2.335   0.008   5.213
  236DIO     F313169   2.469  -0.002   5.202
  236DIO     C713170   1.895   0.037   5.252
  236DIO     C813171   1.818  -0.065   5.326
  236DIO     C913172   1.673  -0.056   5.338
  236DIO    C1013173   1.601   0.049   5.269
  236DIO    C1113174   1.673   0.155   5.202
  236DIO    C1213175   1.817   0.148   5.192
  236DIO     F413176   1.882   0.245   5.125
  236DIO     O113177   1.468   0.065   5.305
  236DIO    C1313178   1.374   0.106   5.211
  236DIO     O213179   1.373   0.106   5.085
  236DIO    C1413180   1.245   0.139   5.272
  236DIO    C1513181   1.178   0.049   5.369
  236DIO     F513182   1.241  -0.063   5.411
  236DIO    C1613183   1.048   0.077   5.425
  236DIO    C1713184   0.972   0.194   5.382
  236DIO    C1813185   1.041   0.293   5.300
  236DIO    C1913186   1.172   0.266   5.245
  236DIO     F613187   1.235   0.367   5.182
  236DIO    C2013188   0.831   0.219   5.431
  236DIO     O313189   0.761   0.100   5.469
  236DIO    C2113190   0.718   0.024   5.357
  236DIO    C2213191   0.629   0.107   5.265
  236DIO    C2313192   0.710   0.231   5.227
  236DIO     O413193   0.754   0.301   5.343
  236DIO    C2413194   0.496   0.150   5.332
  236DIO    C2513195   0.405   0.035   5.379
  236DIO    C2613196   0.367  -0.062   5.268
  236DIO     H113197   2.088   0.236   5.305
  236DIO     H213198   2.046  -0.179   5.157
  236DIO     H313199   1.869  -0.146   5.376
  236DIO     H413200   1.618  -0.127   5.399
  236DIO     H513201   1.619   0.236   5.156
  236DIO     H613202   1.010   0.011   5.503
  236DIO     H713203   0.998   0.391   5.283
  236DIO     H813204   0.841   0.277   5.524
  236DIO     H913205   0.804  -0.014   5.302
  236DIO    H1013206   0.665  -0.064   5.394
  236DIO    H1113207   0.606   0.051   5.174
  236DIO    H1213208   0.649   0.300   5.168
  236DIO    H1313209   0.796   0.204   5.165
  236DIO    H1413210   0.516   0.214   5.418
  236DIO    H1513211   0.440   0.211   5.260
  236DIO    H1613212   0.453  -0.020   5.461
  236DIO    H1713213   0.314   0.079   5.420
  236DIO    H1813214   0.323  -0.009   5.183
  236DIO    H1913215   0.454  -0.119   5.233
  236DIO    H2013216   0.293  -0.134   5.306
  237DIO     F113217   8.158  10.089   9.727
  237DIO     C113218   8.080  10.126   9.830
  237DIO     C213219   7.936  10.129   9.814
  237DIO     C313220   7.848  10.171   9.924
  237DIO     C413221   7.913  10.207  10.052
  237DIO     C513222   8.057  10.203  10.066
  237DIO     F213223   8.113  10.233  10.186
  237DIO     C613224   8.141  10.162   9.956
  237DIO     F313225   8.275  10.160   9.970
  237DIO     C713226   7.701  10.176   9.909
  237DIO     C813227   7.624  10.297   9.947
  237DIO     C913228   7.479  10.301   9.933
  237DIO    C1013229   7.407  10.183   9.890
  237DIO    C1113230   7.479  10.066   9.844
  237DIO    C1213231   7.623  10.062   9.856
  237DIO     F413232   7.688   9.950   9.818
  237DIO     O113233   7.275  10.202   9.855
  237DIO    C1313234   7.180  10.103   9.879
  237DIO     O213235   7.179  10.001   9.953
  237DIO    C1413236   7.051  10.132   9.815
  237DIO    C1513237   6.985  10.263   9.830
  237DIO     F513238   7.047  10.364   9.894
  237DIO    C1613239   6.854  10.292   9.774
  237DIO    C1713240   6.778  10.187   9.706
  237DIO    C1813241   6.847  10.062   9.675
  237DIO    C1913242   6.978  10.035   9.730
  237DIO     F613243   7.041   9.923   9.686
  237DIO    C2013244   6.637  10.212   9.657
  237DIO     O313245   6.568  10.313   9.730
  237DIO    C2113246   6.524  10.268   9.858
  237DIO    C2213247   6.435  10.145   9.845
  237DIO    C2313248   6.516  10.040   9.769
  237DIO     O413249   6.560  10.092   9.643
  237DIO    C2413250   6.302  10.173   9.771
  237DIO    C2513251   6.212  10.279   9.835
  237DIO    C2613252   6.173  10.249   9.979
  237DIO     H113253   7.894  10.100   9.718
  237DIO     H213254   7.852  10.229  10.140
  237DIO     H313255   7.676  10.385   9.982
  237DIO     H413256   7.424  10.392   9.953
  237DIO     H513257   7.425   9.980   9.807
  237DIO     H613258   6.816  10.393   9.780
  237DIO     H713259   6.804   9.990   9.607
  237DIO     H813260   6.647  10.251   9.555
  237DIO     H913261   6.611  10.247   9.921
  237DIO    H1013262   6.471  10.351   9.906
  237DIO    H1113263   6.413  10.106   9.945
  237DIO    H1213264   6.455   9.952   9.748
  237DIO    H1313265   6.602  10.007   9.828
  237DIO    H1413266   6.322  10.204   9.668
  237DIO    H1513267   6.246  10.079   9.765
  237DIO    H1613268   6.259  10.378   9.830
  237DIO    H1713269   6.120  10.286   9.775
  237DIO    H1813270   6.129  10.149   9.988
  237DIO    H1913271   6.260  10.254  10.046
  237DIO    H2013272   6.100  10.321  10.014
  238DIO     F113273   5.494  10.689   0.210
  238DIO     C113274   5.416  10.664   0.103
  238DIO     C213275   5.272  10.659   0.119
  238DIO     C313276   5.183  10.630   0.004
  238DIO     C413277   5.249  10.610  -0.127
  238DIO     C513278   5.393  10.615  -0.140
  238DIO     F213279   5.449  10.600  -0.262
  238DIO     C613280   5.477  10.643  -0.026
  238DIO     F313281   5.611  10.647  -0.040
  238DIO     C713282   5.037  10.624   0.019
  238DIO     C813283   4.960  10.509  -0.033
  238DIO     C913284   4.815  10.502  -0.019
  238DIO    C1013285   4.743  10.614   0.037
  238DIO    C1113286   4.815  10.725   0.096
  238DIO    C1213287   4.959  10.730   0.085
  238DIO     F413288   5.024  10.837   0.136
  238DIO     O113289   4.610  10.591   0.069
  238DIO    C1313290   4.516  10.693   0.058
  238DIO     O213291   4.515  10.802  -0.004
  238DIO    C1413292   4.387  10.657   0.118
  238DIO    C1513293   4.321  10.528   0.088
  238DIO     F513294   4.383  10.436   0.012
  238DIO    C1613295   4.190  10.493   0.140
  238DIO    C1713296   4.114  10.589   0.220
  238DIO    C1813297   4.183  10.710   0.265
  238DIO    C1913298   4.314  10.743   0.213
  238DIO     F613299   4.377  10.849   0.270
  238DIO    C2013300   3.973  10.559   0.266
  238DIO     O313301   3.904  10.467   0.181
  238DIO    C2113302   3.860  10.526   0.059
  238DIO    C2213303   3.771  10.647   0.086
  238DIO    C2313304   3.852  10.742   0.174
  238DIO     O413305   3.896  10.676   0.293
  238DIO    C2413306   3.638  10.610   0.156
  238DIO    C2513307   3.548  10.513   0.080
  238DIO    C2613308   3.509  10.560  -0.059
  238DIO     H113309   5.230  10.677   0.217
  238DIO     H213310   5.188  10.598  -0.216
  238DIO     H313311   5.011  10.425  -0.078
  238DIO     H413312   4.760  10.414  -0.050
  238DIO     H513313   4.761  10.806   0.144
  238DIO     H613314   4.152  10.394   0.122
  238DIO     H713315   4.140  10.773   0.341
  238DIO     H813316   3.983  10.508   0.362
  238DIO     H913317   3.947  10.555  -0.001
  238DIO    H1013318   3.807  10.450   0.002
  238DIO    H1113319   3.748  10.697  -0.008
  238DIO    H1213320   3.791  10.828   0.205
  238DIO    H1313321   3.938  10.783   0.120
  238DIO    H1413322   3.658  10.568   0.255
  238DIO    H1513323   3.582  10.703   0.174
  238DIO    H1613324   3.595  10.414   0.074
  238DIO    H1713325   3.456  10.499   0.139
  238DIO    H1813326   3.465  10.660  -0.056
  238DIO    H1913327   3.596  10.562  -0.126
  238DIO    H2013328   3.435  10.492  -0.103
  239DIO     F113329   5.389   5.321   6.817
  239DIO     C113330   5.311   5.341   6.709
  239DIO     C213331   5.167   5.330   6.722
  239DIO     C313332   5.078   5.350   6.605
  239DIO     C413333   5.144   5.383   6.476
  239DIO     C513334   5.288   5.394   6.466
  239DIO     F213335   5.343   5.429   6.348
  239DIO     C613336   5.372   5.374   6.582
  239DIO     F313337   5.505   5.383   6.571
  239DIO     C713338   4.932   5.338   6.615
  239DIO     C813339   4.855   5.253   6.522
  239DIO     C913340   4.710   5.242   6.532
  239DIO    C1013341   4.637   5.322   6.629
  239DIO    C1113342   4.710   5.400   6.727
  239DIO    C1213343   4.854   5.409   6.719
  239DIO     F413344   4.919   5.487   6.808
  239DIO     O113345   4.505   5.288   6.649
  239DIO    C1313346   4.411   5.386   6.679
  239DIO     O213347   4.410   5.511   6.666
  239DIO    C1413348   4.281   5.329   6.719
  239DIO    C1513349   4.215   5.223   6.640
  239DIO     F513350   4.278   5.169   6.533
  239DIO    C1613351   4.084   5.170   6.674
  239DIO    C1713352   4.009   5.226   6.786
  239DIO    C1813353   4.077   5.318   6.875
  239DIO    C1913354   4.209   5.370   6.841
  239DIO     F613355   4.271   5.444   6.936
  239DIO    C2013356   3.868   5.180   6.816
  239DIO     O313357   3.798   5.129   6.701
  239DIO    C2113358   3.754   5.232   6.613
  239DIO    C2213359   3.666   5.332   6.686
  239DIO    C2313360   3.746   5.384   6.805
  239DIO     O413361   3.791   5.277   6.887
  239DIO    C2413362   3.533   5.271   6.736
  239DIO    C2513363   3.442   5.212   6.627
  239DIO    C2613364   3.404   5.311   6.519
  239DIO     H113365   5.124   5.307   6.819
  239DIO     H213366   5.083   5.408   6.390
  239DIO     H313367   4.906   5.194   6.447
  239DIO     H413368   4.655   5.174   6.468
  239DIO     H513369   4.655   5.455   6.803
  239DIO     H613370   4.046   5.086   6.617
  239DIO     H713371   4.034   5.346   6.970
  239DIO     H813372   3.878   5.094   6.883
  239DIO     H913373   3.841   5.283   6.569
  239DIO    H1013374   3.702   5.185   6.530
  239DIO    H1113375   3.643   5.416   6.620
  239DIO    H1213376   3.685   5.450   6.867
  239DIO    H1313377   3.832   5.443   6.771
  239DIO    H1413378   3.553   5.192   6.810
  239DIO    H1513379   3.476   5.348   6.789
  239DIO    H1613380   3.489   5.124   6.582
  239DIO    H1713381   3.350   5.175   6.675
  239DIO    H1813382   3.360   5.401   6.561
  239DIO    H1913383   3.490   5.339   6.458
  239DIO    H2013384   3.330   5.266   6.451
  240DIO     F113385   6.247   3.785  -0.744
  240DIO     C113386   6.169   3.722  -0.654
  240DIO     C213387   6.025   3.738  -0.661
  240DIO     C313388   5.936   3.672  -0.563
  240DIO     C413389   6.002   3.589  -0.459
  240DIO     C513390   6.146   3.575  -0.454
  240DIO     F213391   6.201   3.495  -0.361
  240DIO     C613392   6.230   3.641  -0.551
  240DIO     F313393   6.363   3.628  -0.545
  240DIO     C713394   5.790   3.687  -0.567
  240DIO     C813395   5.713   3.726  -0.447
  240DIO     C913396   5.568   3.740  -0.451
  240DIO    C1013397   5.495   3.707  -0.573
  240DIO    C1113398   5.568   3.677  -0.695
  240DIO    C1213399   5.712   3.665  -0.691
  240DIO     F413400   5.777   3.631  -0.804
  240DIO     O113401   5.363   3.746  -0.577
  240DIO    C1313402   5.269   3.670  -0.645
  240DIO     O213403   5.268   3.550  -0.684
  240DIO    C1413404   5.140   3.738  -0.658
  240DIO    C1513405   5.073   3.802  -0.542
  240DIO     F513406   5.136   3.808  -0.423
  240DIO    C1613407   4.942   3.865  -0.552
  240DIO    C1713408   4.867   3.859  -0.676
  240DIO    C1813409   4.935   3.812  -0.796
  240DIO    C1913410   5.067   3.751  -0.786
  240DIO     F613411   5.130   3.723  -0.903
  240DIO    C2013412   4.726   3.914  -0.685
  240DIO     O313413   4.656   3.913  -0.560
  240DIO    C2113414   4.613   3.783  -0.522
  240DIO    C2213415   4.524   3.722  -0.630
  240DIO    C2313416   4.604   3.723  -0.760
  240DIO     O413417   4.649   3.855  -0.790
  240DIO    C2413418   4.391   3.798  -0.649
  240DIO    C2513419   4.300   3.807  -0.526
  240DIO    C2613420   4.262   3.672  -0.468
  240DIO     H113421   5.982   3.799  -0.740
  240DIO     H213422   5.941   3.530  -0.391
  240DIO     H313423   5.764   3.749  -0.355
  240DIO     H413424   5.513   3.777  -0.366
  240DIO     H513425   5.513   3.657  -0.786
  240DIO     H613426   4.904   3.918  -0.465
  240DIO     H713427   4.893   3.826  -0.894
  240DIO     H813428   4.736   4.020  -0.711
  240DIO     H913429   4.699   3.719  -0.503
  240DIO    H1013430   4.560   3.791  -0.427
  240DIO    H1113431   4.501   3.618  -0.604
  240DIO    H1213432   4.543   3.688  -0.843
  240DIO    H1313433   4.691   3.655  -0.753
  240DIO    H1413434   4.411   3.900  -0.684
  240DIO    H1513435   4.334   3.749  -0.730
  240DIO    H1613436   4.348   3.869  -0.449
  240DIO    H1713437   4.208   3.860  -0.555
  240DIO    H1813438   4.218   3.607  -0.544
  240DIO    H1913439   4.348   3.621  -0.424
  240DIO    H2013440   4.188   3.686  -0.388
  241DIO     F113441  10.386   9.621   0.672
  241DIO     C113442  10.309   9.516   0.639
  241DIO     C213443  10.164   9.528   0.651
  241DIO     C313444  10.076   9.414   0.618
  241DIO     C413445  10.141   9.290   0.570
  241DIO     C513446  10.285   9.281   0.558
  241DIO     F213447  10.341   9.168   0.510
  241DIO     C613448  10.369   9.394   0.592
  241DIO     F313449  10.503   9.384   0.582
  241DIO     C713450   9.929   9.423   0.631
  241DIO     C813451   9.852   9.320   0.704
  241DIO     C913452   9.707   9.328   0.717
  241DIO    C1013453   9.635   9.434   0.649
  241DIO    C1113454   9.707   9.541   0.583
  241DIO    C1213455   9.851   9.534   0.573
  241DIO     F413456   9.916   9.632   0.506
  241DIO     O113457   9.503   9.450   0.685
  241DIO    C1313458   9.408   9.492   0.591
  241DIO     O213459   9.407   9.493   0.465
  241DIO    C1413460   9.279   9.525   0.653
  241DIO    C1513461   9.213   9.434   0.749
  241DIO     F513462   9.275   9.322   0.790
  241DIO    C1613463   9.082   9.462   0.805
  241DIO    C1713464   9.006   9.579   0.763
  241DIO    C1813465   9.075   9.678   0.681
  241DIO    C1913466   9.207   9.651   0.626
  241DIO     F613467   9.269   9.754   0.564
  241DIO    C2013468   8.865   9.603   0.812
  241DIO     O313469   8.796   9.484   0.849
  241DIO    C2113470   8.752   9.408   0.736
  241DIO    C2213471   8.663   9.493   0.645
  241DIO    C2313472   8.744   9.617   0.608
  241DIO     O413473   8.788   9.686   0.724
  241DIO    C2413474   8.530   9.535   0.712
  241DIO    C2513475   8.440   9.420   0.758
  241DIO    C2613476   8.401   9.324   0.647
  241DIO     H113477  10.122   9.621   0.686
  241DIO     H213478  10.081   9.207   0.535
  241DIO     H313479   9.904   9.239   0.754
  241DIO     H413480   9.652   9.258   0.777
  241DIO     H513481   9.653   9.623   0.537
  241DIO     H613482   9.044   9.395   0.882
  241DIO     H713483   9.032   9.776   0.665
  241DIO     H813484   8.875   9.660   0.905
  241DIO     H913485   8.839   9.371   0.681
  241DIO    H1013486   8.699   9.320   0.773
  241DIO    H1113487   8.641   9.437   0.554
  241DIO    H1213488   8.683   9.687   0.549
  241DIO    H1313489   8.830   9.590   0.545
  241DIO    H1413490   8.550   9.599   0.799
  241DIO    H1513491   8.474   9.596   0.641
  241DIO    H1613492   8.487   9.364   0.840
  241DIO    H1713493   8.348   9.463   0.800
  241DIO    H1813494   8.357   9.377   0.562
  241DIO    H1913495   8.488   9.267   0.611
  241DIO    H2013496   8.328   9.251   0.684
  242DIO     F113497   8.420   0.811   6.612
  242DIO     C113498   8.342   0.832   6.504
  242DIO     C213499   8.198   0.821   6.517
  242DIO     C313500   8.109   0.841   6.400
  242DIO     C413501   8.175   0.876   6.272
  242DIO     C513502   8.319   0.887   6.262
  242DIO     F213503   8.374   0.923   6.144
  242DIO     C613504   8.403   0.865   6.377
  242DIO     F313505   8.537   0.875   6.366
  242DIO     C713506   7.963   0.829   6.410
  242DIO     C813507   7.886   0.746   6.316
  242DIO     C913508   7.741   0.734   6.326
  242DIO    C1013509   7.668   0.813   6.423
  242DIO    C1113510   7.741   0.890   6.523
  242DIO    C1213511   7.885   0.900   6.514
  242DIO     F413512   7.950   0.976   6.604
  242DIO     O113513   7.536   0.779   6.443
  242DIO    C1313514   7.442   0.877   6.474
  242DIO     O213515   7.441   1.002   6.462
  242DIO    C1413516   7.313   0.819   6.514
  242DIO    C1513517   7.246   0.714   6.434
  242DIO     F513518   7.309   0.661   6.327
  242DIO    C1613519   7.116   0.661   6.468
  242DIO    C1713520   7.040   0.716   6.580
  242DIO    C1813521   7.109   0.807   6.670
  242DIO    C1913522   7.240   0.859   6.637
  242DIO     F613523   7.303   0.932   6.732
  242DIO    C2013524   6.899   0.669   6.609
  242DIO     O313525   6.829   0.620   6.494
  242DIO    C2113526   6.786   0.724   6.407
  242DIO    C2213527   6.697   0.823   6.481
  242DIO    C2313528   6.778   0.874   6.601
  242DIO     O413529   6.822   0.766   6.682
  242DIO    C2413530   6.564   0.761   6.530
  242DIO    C2513531   6.473   0.703   6.421
  242DIO    C2613532   6.435   0.803   6.313
  242DIO     H113533   8.155   0.797   6.613
  242DIO     H213534   8.114   0.902   6.185
  242DIO     H313535   7.937   0.687   6.241
  242DIO     H413536   7.686   0.666   6.262
  242DIO     H513537   7.687   0.945   6.599
  242DIO     H613538   7.077   0.577   6.410
  242DIO     H713539   7.066   0.834   6.765
  242DIO     H813540   6.909   0.583   6.676
  242DIO     H913541   6.872   0.775   6.364
  242DIO    H1013542   6.733   0.677   6.324
  242DIO    H1113543   6.674   0.908   6.416
  242DIO    H1213544   6.716   0.940   6.663
  242DIO    H1313545   6.864   0.933   6.567
  242DIO    H1413546   6.584   0.682   6.603
  242DIO    H1513547   6.508   0.838   6.584
  242DIO    H1613548   6.521   0.616   6.375
  242DIO    H1713549   6.382   0.666   6.469
  242DIO    H1813550   6.391   0.893   6.357
  242DIO    H1913551   6.521   0.832   6.253
  242DIO    H2013552   6.361   0.759   6.246
  243DIO     F113553  10.514   6.573   5.645
  243DIO     C113554  10.437   6.465   5.666
  243DIO     C213555  10.293   6.481   5.672
  243DIO     C313556  10.204   6.365   5.697
  243DIO     C413557  10.269   6.233   5.714
  243DIO     C513558  10.414   6.220   5.707
  243DIO     F213559  10.469   6.097   5.719
  243DIO     C613560  10.497   6.335   5.683
  243DIO     F313561  10.631   6.321   5.679
  243DIO     C713562  10.057   6.379   5.704
  243DIO     C813563   9.980   6.323   5.818
  243DIO     C913564   9.836   6.337   5.824
  243DIO    C1013565   9.763   6.397   5.714
  243DIO    C1113566   9.835   6.460   5.605
  243DIO    C1213567   9.980   6.449   5.600
  243DIO     F413568  10.044   6.503   5.495
  243DIO     O113569   9.631   6.428   5.738
  243DIO    C1313570   9.536   6.420   5.636
  243DIO     O213571   9.535   6.362   5.525
  243DIO    C1413572   9.407   6.479   5.674
  243DIO    C1513573   9.341   6.445   5.802
  243DIO     F513574   9.403   6.366   5.892
  243DIO    C1613575   9.210   6.496   5.839
  243DIO    C1713576   9.134   6.579   5.745
  243DIO    C1813577   9.203   6.627   5.626
  243DIO    C1913578   9.335   6.577   5.591
  243DIO     F613579   9.397   6.638   5.488
  243DIO    C2013580   8.994   6.624   5.777
  243DIO     O313581   8.924   6.536   5.866
  243DIO    C2113582   8.880   6.416   5.803
  243DIO    C2213583   8.791   6.447   5.683
  243DIO    C2313584   8.872   6.538   5.591
  243DIO     O413585   8.916   6.655   5.661
  243DIO    C2413586   8.658   6.516   5.722
  243DIO    C2513587   8.568   6.437   5.817
  243DIO    C2613588   8.529   6.299   5.765
  243DIO     H113589  10.250   6.579   5.658
  243DIO     H213590  10.209   6.143   5.722
  243DIO     H313591  10.032   6.276   5.900
  243DIO     H413592   9.780   6.303   5.911
  243DIO     H513593   9.781   6.510   5.526
  243DIO     H613594   9.172   6.474   5.938
  243DIO     H713595   9.160   6.706   5.566
  243DIO     H813596   9.003   6.718   5.831
  243DIO     H913597   8.967   6.357   5.772
  243DIO    H1013598   8.827   6.356   5.878
  243DIO    H1113599   8.769   6.354   5.630
  243DIO    H1213600   8.811   6.572   5.506
  243DIO    H1313601   8.958   6.485   5.549
  243DIO    H1413602   8.678   6.614   5.768
  243DIO    H1513603   8.602   6.536   5.630
  243DIO    H1613604   8.615   6.427   5.916
  243DIO    H1713605   8.476   6.495   5.833
  243DIO    H1813606   8.485   6.305   5.665
  243DIO    H1913607   8.616   6.232   5.761
  243DIO    H2013608   8.456   6.253   5.832
  244DIO     F113609   8.919  -0.346   3.664
  244DIO     C113610   8.841  -0.248   3.612
  244DIO     C213611   8.697  -0.265   3.612
  244DIO     C313612   8.608  -0.162   3.554
  244DIO     C413613   8.674  -0.040   3.500
  244DIO     C513614   8.818  -0.026   3.502
  244DIO     F213615   8.874   0.088   3.456
  244DIO     C613616   8.902  -0.129   3.558
  244DIO     F313617   9.036  -0.115   3.559
  244DIO     C713618   8.462  -0.178   3.551
  244DIO     C813619   8.385  -0.157   3.427
  244DIO     C913620   8.240  -0.172   3.424
  244DIO    C1013621   8.168  -0.198   3.547
  244DIO    C1113622   8.240  -0.226   3.670
  244DIO    C1213623   8.384  -0.214   3.671
  244DIO     F413624   8.449  -0.235   3.788
  244DIO     O113625   8.035  -0.235   3.533
  244DIO    C1313626   7.941  -0.197   3.628
  244DIO     O213627   7.940  -0.109   3.718
  244DIO    C1413628   7.812  -0.264   3.609
  244DIO    C1513629   7.746  -0.269   3.477
  244DIO     F513630   7.808  -0.219   3.368
  244DIO    C1613631   7.615  -0.328   3.456
  244DIO    C1713632   7.539  -0.381   3.570
  244DIO    C1813633   7.608  -0.393   3.698
  244DIO    C1913634   7.739  -0.335   3.717
  244DIO     F613635   7.802  -0.362   3.834
  244DIO    C2013636   7.398  -0.433   3.552
  244DIO     O313637   7.329  -0.375   3.441
  244DIO    C2113638   7.285  -0.242   3.467
  244DIO    C2213639   7.196  -0.237   3.591
  244DIO    C2313640   7.277  -0.297   3.706
  244DIO     O413641   7.321  -0.429   3.673
  244DIO    C2413642   7.063  -0.314   3.574
  244DIO    C2513643   6.973  -0.266   3.460
  244DIO    C2613644   6.934  -0.119   3.470
  244DIO     H113645   8.655  -0.356   3.654
  244DIO     H213646   8.613   0.043   3.466
  244DIO     H313647   8.436  -0.135   3.334
  244DIO     H413648   8.185  -0.165   3.331
  244DIO     H513649   8.186  -0.251   3.760
  244DIO     H613650   7.577  -0.336   3.355
  244DIO     H713651   7.565  -0.450   3.779
  244DIO     H813652   7.408  -0.539   3.528
  244DIO     H913653   7.372  -0.176   3.479
  244DIO    H1013654   7.232  -0.206   3.379
  244DIO    H1113655   7.173  -0.132   3.615
  244DIO    H1213656   7.216  -0.305   3.796
  244DIO    H1313657   7.363  -0.234   3.731
  244DIO    H1413658   7.083  -0.420   3.558
  244DIO    H1513659   7.007  -0.307   3.668
  244DIO    H1613660   7.020  -0.285   3.363
  244DIO    H1713661   6.881  -0.326   3.461
  244DIO    H1813662   6.890  -0.096   3.567
  244DIO    H1913663   7.021  -0.054   3.454
  244DIO    H2013664   6.860  -0.094   3.393
  245DIO     F113665   2.340   4.001   6.501
  245DIO     C113666   2.263   4.098   6.553
  245DIO     C213667   2.119   4.089   6.538
  245DIO     C313668   2.030   4.195   6.592
  245DIO     C413669   2.095   4.307   6.663
  245DIO     C513670   2.240   4.313   6.676
  245DIO     F213671   2.295   4.415   6.745
  245DIO     C613672   2.323   4.209   6.622
  245DIO     F313673   2.457   4.217   6.634
  245DIO     C713674   1.883   4.188   6.578
  245DIO     C813675   1.806   4.303   6.526
  245DIO     C913676   1.662   4.297   6.512
  245DIO    C1013677   1.589   4.181   6.558
  245DIO    C1113678   1.662   4.063   6.603
  245DIO    C1213679   1.806   4.068   6.614
  245DIO     F413680   1.871   3.960   6.661
  245DIO     O113681   1.457   4.172   6.520
  245DIO    C1313682   1.362   4.113   6.604
  245DIO     O213683   1.361   4.088   6.727
  245DIO    C1413684   1.233   4.092   6.538
  245DIO    C1513685   1.167   4.200   6.460
  245DIO     F513686   1.230   4.318   6.441
  245DIO    C1613687   1.036   4.183   6.400
  245DIO    C1713688   0.960   4.060   6.419
  245DIO    C1813689   1.029   3.947   6.480
  245DIO    C1913690   1.161   3.963   6.540
  245DIO     F613691   1.223   3.851   6.581
  245DIO    C2013692   0.820   4.045   6.366
  245DIO     O313693   0.750   4.170   6.353
  245DIO    C2113694   0.706   4.222   6.478
  245DIO    C2213695   0.617   4.122   6.551
  245DIO    C2313696   0.698   3.993   6.564
  245DIO     O413697   0.742   3.948   6.437
  245DIO    C2413698   0.485   4.094   6.477
  245DIO    C2513699   0.394   4.215   6.454
  245DIO    C2613700   0.355   4.289   6.581
  245DIO     H113701   2.076   4.004   6.487
  245DIO     H213702   2.035   4.382   6.713
  245DIO     H313703   1.858   4.392   6.492
  245DIO     H413704   1.607   4.378   6.466
  245DIO     H513705   1.607   3.974   6.633
  245DIO     H613706   0.998   4.263   6.337
  245DIO     H713707   0.986   3.848   6.478
  245DIO     H813708   0.829   4.007   6.264
  245DIO     H913709   0.793   4.249   6.539
  245DIO    H1013710   0.653   4.316   6.458
  245DIO    H1113711   0.595   4.160   6.651
  245DIO    H1213712   0.637   3.914   6.609
  245DIO    H1313713   0.784   4.008   6.631
  245DIO    H1413714   0.504   4.047   6.380
  245DIO    H1513715   0.428   4.020   6.535
  245DIO    H1613716   0.441   4.285   6.384
  245DIO    H1713717   0.302   4.180   6.405
  245DIO    H1813718   0.312   4.221   6.655
  245DIO    H1913719   0.442   4.338   6.627
  245DIO    H2013720   0.282   4.367   6.559
  246DIO     F113721   9.300   5.769   2.254
  246DIO     C113722   9.222   5.706   2.164
  246DIO     C213723   9.078   5.707   2.181
  246DIO     C313724   8.989   5.637   2.086
  246DIO     C413725   9.055   5.569   1.972
  246DIO     C513726   9.199   5.569   1.957
  246DIO     F213727   9.254   5.509   1.850
  246DIO     C613728   9.283   5.637   2.052
  246DIO     F313729   9.416   5.636   2.038
  246DIO     C713730   8.843   5.636   2.102
  246DIO     C813731   8.766   5.510   2.096
  246DIO     C913732   8.621   5.509   2.112
  246DIO    C1013733   8.548   5.635   2.122
  246DIO    C1113734   8.621   5.760   2.135
  246DIO    C1213735   8.765   5.760   2.123
  246DIO     F413736   8.830   5.878   2.130
  246DIO     O113737   8.416   5.625   2.160
  246DIO    C1313738   8.322   5.715   2.112
  246DIO     O213739   8.321   5.793   2.013
  246DIO    C1413740   8.192   5.704   2.180
  246DIO    C1513741   8.126   5.574   2.201
  246DIO     F513742   8.189   5.459   2.165
  246DIO    C1613743   7.995   5.561   2.263
  246DIO    C1713744   7.920   5.680   2.301
  246DIO    C1813745   7.988   5.808   2.297
  246DIO    C1913746   8.120   5.820   2.237
  246DIO     F613747   8.182   5.939   2.250
  246DIO    C2013748   7.779   5.669   2.354
  246DIO     O313749   7.709   5.552   2.311
  246DIO    C2113750   7.665   5.561   2.176
  246DIO    C2213751   7.577   5.683   2.155
  246DIO    C2313752   7.657   5.805   2.201
  246DIO     O413753   7.702   5.788   2.335
  246DIO    C2413754   7.444   5.676   2.234
  246DIO    C2513755   7.353   5.557   2.200
  246DIO    C2613756   7.315   5.548   2.053
  246DIO     H113757   9.035   5.760   2.265
  246DIO     H213758   8.994   5.524   1.893
  246DIO     H313759   8.817   5.416   2.086
  246DIO     H413760   8.566   5.416   2.116
  246DIO     H513761   8.566   5.852   2.149
  246DIO     H613762   7.957   5.462   2.283
  246DIO     H713763   7.945   5.896   2.344
  246DIO     H813764   7.789   5.658   2.463
  246DIO     H913765   7.752   5.565   2.109
  246DIO    H1013766   7.613   5.469   2.151
  246DIO    H1113767   7.554   5.694   2.049
  246DIO    H1213768   7.596   5.895   2.197
  246DIO    H1313769   7.743   5.822   2.135
  246DIO    H1413770   7.464   5.673   2.342
  246DIO    H1513771   7.387   5.768   2.215
  246DIO    H1613772   7.400   5.463   2.231
  246DIO    H1713773   7.261   5.566   2.260
  246DIO    H1813774   7.271   5.642   2.018
  246DIO    H1913775   7.401   5.525   1.990
  246DIO    H2013776   7.241   5.469   2.038
  247DIO     F113777   8.663  10.742   4.558
  247DIO     C113778   8.585  10.770   4.452
  247DIO     C213779   8.441  10.758   4.464
  247DIO     C313780   8.353  10.785   4.349
  247DIO     C413781   8.418  10.828   4.223
  247DIO     C513782   8.562  10.839   4.213
  247DIO     F213783   8.618  10.882   4.098
  247DIO     C613784   8.646  10.811   4.328
  247DIO     F313785   8.780  10.821   4.317
  247DIO     C713786   8.206  10.773   4.359
  247DIO     C813787   8.129  10.695   4.259
  247DIO     C913788   7.984  10.683   4.268
  247DIO    C1013789   7.912  10.756   4.371
  247DIO    C1113790   7.984  10.827   4.474
  247DIO    C1213791   8.128  10.837   4.466
  247DIO     F413792   8.193  10.908   4.561
  247DIO     O113793   7.780  10.721   4.388
  247DIO    C1313794   7.685  10.816   4.425
  247DIO     O213795   7.684  10.942   4.421
  247DIO    C1413796   7.556  10.757   4.461
  247DIO    C1513797   7.490  10.656   4.375
  247DIO     F513798   7.552  10.610   4.265
  247DIO    C1613799   7.359  10.601   4.406
  247DIO    C1713800   7.283  10.649   4.521
  247DIO    C1813801   7.352  10.735   4.616
  247DIO    C1913802   7.483  10.789   4.586
  247DIO     F613803   7.546  10.856   4.685
  247DIO    C2013804   7.142  10.601   4.547
  247DIO     O313805   7.073  10.559   4.430
  247DIO    C2113806   7.029  10.668   4.349
  247DIO    C2213807   6.940  10.762   4.429
  247DIO    C2313808   7.021  10.806   4.551
  247DIO     O413809   7.065  10.693   4.626
  247DIO    C2413810   6.807  10.697   4.474
  247DIO    C2513811   6.717  10.646   4.362
  247DIO    C2613812   6.678  10.752   4.260
  247DIO     H113813   8.399  10.728   4.559
  247DIO     H213814   8.357  10.859   4.138
  247DIO     H313815   8.181  10.641   4.181
  247DIO     H413816   7.929  10.619   4.201
  247DIO     H513817   7.930  10.877   4.553
  247DIO     H613818   7.321  10.521   4.343
  247DIO     H713819   7.309  10.756   4.713
  247DIO     H813820   7.152  10.511   4.609
  247DIO     H913821   7.116  10.721   4.309
  247DIO    H1013822   6.976  10.626   4.263
  247DIO    H1113823   6.918  10.851   4.368
  247DIO    H1213824   6.960  10.868   4.618
  247DIO    H1313825   7.107  10.867   4.521
  247DIO    H1413826   6.827  10.614   4.542
  247DIO    H1513827   6.751  10.771   4.532
  247DIO    H1613828   6.764  10.562   4.310
  247DIO    H1713829   6.625  10.606   4.407
  247DIO    H1813830   6.634  10.840   4.309
  247DIO    H1913831   6.765  10.785   4.202
  247DIO    H2013832   6.605  10.712   4.190
  248DIO     F113833   8.009   5.351  10.449
  248DIO     C113834   7.931   5.373  10.341
  248DIO     C213835   7.787   5.362  10.354
  248DIO     C313836   7.699   5.384  10.237
  248DIO     C413837   7.764   5.420  10.110
  248DIO     C513838   7.908   5.431  10.100
  248DIO     F213839   7.964   5.468   9.983
  248DIO     C613840   7.992   5.408  10.215
  248DIO     F313841   8.126   5.417  10.204
  248DIO     C713842   7.552   5.372  10.248
  248DIO     C813843   7.475   5.289  10.152
  248DIO     C913844   7.330   5.277  10.162
  248DIO    C1013845   7.258   5.355  10.261
  248DIO    C1113846   7.330   5.431  10.361
  248DIO    C1213847   7.474   5.441  10.353
  248DIO     F413848   7.539   5.516  10.443
  248DIO     O113849   7.126   5.321  10.280
  248DIO    C1313850   7.031   5.418  10.312
  248DIO     O213851   7.030   5.544  10.302
  248DIO    C1413852   6.902   5.360  10.351
  248DIO    C1513853   6.836   5.256  10.270
  248DIO     F513854   6.898   5.204  10.162
  248DIO    C1613855   6.705   5.202  10.303
  248DIO    C1713856   6.629   5.256  10.416
  248DIO    C1813857   6.698   5.347  10.507
  248DIO    C1913858   6.829   5.399  10.474
  248DIO     F613859   6.892   5.471  10.570
  248DIO    C2013860   6.488   5.209  10.444
  248DIO     O313861   6.419   5.161  10.329
  248DIO    C2113862   6.375   5.266  10.243
  248DIO    C2213863   6.286   5.365  10.319
  248DIO    C2313864   6.367   5.414  10.439
  248DIO     O413865   6.411   5.305  10.518
  248DIO    C2413866   6.153   5.302  10.367
  248DIO    C2513867   6.063   5.245  10.257
  248DIO    C2613868   6.024   5.347  10.150
  248DIO     H113869   7.745   5.337  10.450
  248DIO     H213870   7.703   5.447  10.024
  248DIO     H313871   7.527   5.232  10.076
  248DIO     H413872   7.275   5.211  10.097
  248DIO     H513873   7.276   5.485  10.438
  248DIO     H613874   6.667   5.120  10.244
  248DIO     H713875   6.655   5.372  10.603
  248DIO     H813876   6.498   5.122  10.511
  248DIO     H913877   6.462   5.318  10.201
  248DIO    H1013878   6.322   5.221  10.159
  248DIO    H1113879   6.264   5.450  10.254
  248DIO    H1213880   6.306   5.479  10.502
  248DIO    H1313881   6.453   5.474  10.406
  248DIO    H1413882   6.173   5.222  10.439
  248DIO    H1513883   6.097   5.379  10.421
  248DIO    H1613884   6.110   5.158  10.210
  248DIO    H1713885   5.971   5.208  10.304
  248DIO    H1813886   5.980   5.436  10.195
  248DIO    H1913887   6.111   5.376  10.090
  248DIO    H2013888   5.951   5.303  10.082
  249DIO     F113889   1.738   6.315   9.499
  249DIO     C113890   1.660   6.358   9.601
  249DIO     C213891   1.516   6.360   9.584
  249DIO     C313892   1.427   6.408   9.692
  249DIO     C413893   1.493   6.450   9.818
  249DIO     C513894   1.637   6.447   9.833
  249DIO     F213895   1.692   6.482   9.950
  249DIO     C613896   1.721   6.400   9.725
  249DIO     F313897   1.855   6.399   9.739
  249DIO     C713898   1.281   6.412   9.677
  249DIO     C813899   1.204   6.534   9.709
  249DIO     C913900   1.059   6.538   9.694
  249DIO    C1013901   0.986   6.418   9.657
  249DIO    C1113902   1.059   6.299   9.618
  249DIO    C1213903   1.203   6.296   9.630
  249DIO     F413904   1.268   6.182   9.598
  249DIO     O113905   0.854   6.435   9.622
  249DIO    C1313906   0.760   6.337   9.650
  249DIO     O213907   0.759   6.240   9.730
  249DIO    C1413908   0.631   6.363   9.585
  249DIO    C1513909   0.564   6.495   9.593
  249DIO     F513910   0.627   6.598   9.653
  249DIO    C1613911   0.434   6.520   9.536
  249DIO    C1713912   0.358   6.412   9.473
  249DIO    C1813913   0.427   6.286   9.449
  249DIO    C1913914   0.558   6.261   9.505
  249DIO     F613915   0.621   6.148   9.467
  249DIO    C2013916   0.217   6.434   9.423
  249DIO     O313917   0.147   6.539   9.491
  249DIO    C2113918   0.104   6.501   9.621
  249DIO    C2213919   0.015   6.378   9.614
  249DIO    C2313920   0.096   6.269   9.544
  249DIO     O413921   0.140   6.314   9.416
  249DIO    C2413922  -0.118   6.402   9.539
  249DIO    C2513923  -0.209   6.511   9.598
  249DIO    C2613924  -0.247   6.488   9.743
  249DIO     H113925   1.473   6.326   9.490
  249DIO     H213926   1.432   6.477   9.904
  249DIO     H313927   1.255   6.624   9.739
  249DIO     H413928   1.004   6.630   9.710
  249DIO     H513929   1.005   6.211   9.585
  249DIO     H613930   0.395   6.622   9.537
  249DIO     H713931   0.384   6.211   9.384
  249DIO     H813932   0.227   6.469   9.319
  249DIO     H913933   0.190   6.483   9.685
  249DIO    H1013934   0.051   6.586   9.665
  249DIO    H1113935  -0.008   6.344   9.716
  249DIO    H1213936   0.034   6.179   9.528
  249DIO    H1313937   0.182   6.238   9.604
  249DIO    H1413938  -0.098   6.427   9.435
  249DIO    H1513939  -0.174   6.308   9.538
  249DIO    H1613940  -0.161   6.609   9.588
  249DIO    H1713941  -0.300   6.515   9.538
  249DIO    H1813942  -0.291   6.389   9.757
  249DIO    H1913943  -0.161   6.497   9.809
  249DIO    H2013944  -0.321   6.562   9.775
  250DIO     F113945   9.991   3.892   4.886
  250DIO     C113946   9.913   3.938   4.785
  250DIO     C213947   9.769   3.924   4.795
  250DIO     C313948   9.680   3.970   4.686
  250DIO     C413949   9.746   4.033   4.569
  250DIO     C513950   9.890   4.045   4.562
  250DIO     F213951   9.946   4.107   4.455
  250DIO     C613952   9.974   3.999   4.670
  250DIO     F313953  10.108   4.010   4.661
  250DIO     C713954   9.534   3.956   4.694
  250DIO     C813955   9.457   3.896   4.583
  250DIO     C913956   9.312   3.882   4.590
  250DIO    C1013957   9.240   3.937   4.703
  250DIO    C1113958   9.312   3.990   4.817
  250DIO    C1213959   9.456   4.001   4.811
  250DIO     F413960   9.521   4.055   4.916
  250DIO     O113961   9.107   3.900   4.714
  250DIO    C1313962   9.013   3.988   4.767
  250DIO     O213963   9.012   4.112   4.783
  250DIO    C1413964   8.884   3.923   4.792
  250DIO    C1513965   8.818   3.838   4.691
  250DIO     F513966   8.880   3.811   4.574
  250DIO    C1613967   8.687   3.779   4.711
  250DIO    C1713968   8.611   3.807   4.833
  250DIO    C1813969   8.680   3.876   4.941
  250DIO    C1913970   8.811   3.934   4.921
  250DIO     F613971   8.874   3.983   5.030
  250DIO    C2013972   8.470   3.755   4.851
  250DIO     O313973   8.401   3.733   4.728
  250DIO    C2113974   8.357   3.854   4.667
  250DIO    C2213975   8.268   3.934   4.761
  250DIO    C2313976   8.349   3.956   4.889
  250DIO     O413977   8.393   3.832   4.944
  250DIO    C2413978   8.135   3.862   4.795
  250DIO    C2513979   8.045   3.830   4.676
  250DIO    C2613980   8.006   3.952   4.593
  250DIO     H113981   9.727   3.878   4.884
  250DIO     H213982   9.685   4.077   4.491
  250DIO     H313983   9.508   3.856   4.496
  250DIO     H413984   9.257   3.831   4.512
  250DIO     H513985   9.258   4.026   4.903
  250DIO     H613986   8.649   3.711   4.636
  250DIO     H713987   8.637   3.880   5.041
  250DIO     H813988   8.480   3.656   4.897
  250DIO     H913989   8.444   3.913   4.636
  250DIO    H1013990   8.304   3.827   4.575
  250DIO    H1113991   8.245   4.031   4.717
  250DIO    H1213992   8.288   4.006   4.965
  250DIO    H1313993   8.435   4.022   4.870
  250DIO    H1413994   8.155   3.768   4.848
  250DIO    H1513995   8.079   3.925   4.865
  250DIO    H1613996   8.092   3.756   4.611
  250DIO    H1713997   7.953   3.784   4.714
  250DIO    H1813998   7.962   4.030   4.656
  250DIO    H1913999   8.093   3.994   4.541
  250DIO    H2014000   7.932   3.924   4.517
  251DIO     F114001  10.403   7.416   6.574
  251DIO     C114002  10.325   7.522   6.602
  251DIO     C214003  10.181   7.510   6.590
  251DIO     C314004  10.092   7.625   6.618
  251DIO     C414005  10.158   7.751   6.660
  251DIO     C514006  10.302   7.760   6.672
  251DIO     F214007  10.357   7.875   6.715
  251DIO     C614008  10.386   7.646   6.643
  251DIO     F314009  10.519   7.657   6.653
  251DIO     C714010   9.946   7.616   6.605
  251DIO     C814011   9.869   7.715   6.527
  251DIO     C914012   9.724   7.706   6.515
  251DIO    C1014013   9.651   7.604   6.588
  251DIO    C1114014   9.724   7.500   6.659
  251DIO    C1214015   9.868   7.508   6.669
  251DIO     F414016   9.933   7.413   6.739
  251DIO     O114017   9.519   7.586   6.553
  251DIO    C1314018   9.425   7.549   6.648
  251DIO     O214019   9.424   7.553   6.774
  251DIO    C1414020   9.296   7.513   6.588
  251DIO    C1514021   9.229   7.599   6.488
  251DIO     F514022   9.292   7.710   6.442
  251DIO    C1614023   9.098   7.569   6.433
  251DIO    C1714024   9.023   7.454   6.481
  251DIO    C1814025   9.091   7.358   6.567
  251DIO    C1914026   9.223   7.388   6.620
  251DIO     F614027   9.286   7.289   6.687
  251DIO    C2014028   8.882   7.427   6.433
  251DIO     O314029   8.812   7.545   6.391
  251DIO    C2114030   8.769   7.625   6.500
  251DIO    C2214031   8.680   7.545   6.594
  251DIO    C2314032   8.760   7.423   6.637
  251DIO     O414033   8.805   7.349   6.524
  251DIO    C2414034   8.547   7.500   6.529
  251DIO    C2514035   8.456   7.613   6.478
  251DIO    C2614036   8.418   7.714   6.585
  251DIO     H114037  10.138   7.415   6.560
  251DIO     H214038  10.097   7.836   6.691
  251DIO     H314039   9.920   7.794   6.474
  251DIO     H414040   9.669   7.774   6.452
  251DIO     H514041   9.669   7.420   6.708
  251DIO     H614042   9.060   7.632   6.353
  251DIO     H714043   9.049   7.261   6.587
  251DIO     H814044   8.892   7.366   6.343
  251DIO     H914045   8.855   7.665   6.553
  251DIO    H1014046   8.716   7.712   6.459
  251DIO    H1114047   8.657   7.605   6.683
  251DIO    H1214048   8.699   7.356   6.699
  251DIO    H1314049   8.847   7.452   6.699
  251DIO    H1414050   8.567   7.432   6.445
  251DIO    H1514051   8.490   7.442   6.603
  251DIO    H1614052   8.504   7.665   6.394
  251DIO    H1714053   8.364   7.568   6.438
  251DIO    H1814054   8.374   7.665   6.672
  251DIO    H1914055   8.504   7.773   6.618
  251DIO    H2014056   8.344   7.785   6.545
  252DIO     F114057   5.751   0.091   0.714
  252DIO     C114058   5.673   0.000   0.652
  252DIO     C214059   5.529   0.008   0.667
  252DIO     C314060   5.440  -0.092   0.603
  252DIO     C414061   5.506  -0.196   0.520
  252DIO     C514062   5.650  -0.201   0.506
  252DIO     F214063   5.705  -0.295   0.427
  252DIO     C614064   5.734  -0.103   0.571
  252DIO     F314065   5.867  -0.109   0.559
  252DIO     C714066   5.294  -0.087   0.618
  252DIO     C814067   5.217  -0.207   0.657
  252DIO     C914068   5.072  -0.202   0.672
  252DIO    C1014069   4.999  -0.081   0.638
  252DIO    C1114070   5.072   0.041   0.606
  252DIO    C1214071   5.216   0.037   0.594
  252DIO     F414072   5.281   0.149   0.559
  252DIO     O114073   4.867  -0.076   0.677
  252DIO    C1314074   4.773  -0.009   0.599
  252DIO     O214075   4.772   0.029   0.479
  252DIO    C1414076   4.644   0.005   0.668
  252DIO    C1514077   4.577  -0.110   0.733
  252DIO     F514078   4.640  -0.230   0.740
  252DIO    C1614079   4.446  -0.101   0.795
  252DIO    C1714080   4.371   0.024   0.789
  252DIO    C1814081   4.439   0.143   0.740
  252DIO    C1914082   4.571   0.133   0.679
  252DIO     F614083   4.634   0.249   0.650
  252DIO    C2014084   4.230   0.033   0.843
  252DIO     O314085   4.160  -0.092   0.843
  252DIO    C2114086   4.117  -0.131   0.714
  252DIO    C2214087   4.028  -0.024   0.651
  252DIO    C2314088   4.108   0.106   0.652
  252DIO     O414089   4.153   0.138   0.783
  252DIO    C2414090   3.895  -0.004   0.728
  252DIO    C2514091   3.804  -0.127   0.738
  252DIO    C2614092   3.766  -0.186   0.604
  252DIO     H114093   5.486   0.087   0.728
  252DIO     H214094   5.445  -0.265   0.462
  252DIO     H314095   5.268  -0.299   0.681
  252DIO     H414096   5.017  -0.287   0.709
  252DIO     H514097   5.017   0.132   0.586
  252DIO     H614098   4.408  -0.186   0.849
  252DIO     H714099   4.397   0.242   0.753
  252DIO     H814100   4.240   0.061   0.949
  252DIO     H914101   4.203  -0.151   0.650
  252DIO    H1014102   4.064  -0.226   0.723
  252DIO    H1114103   4.005  -0.051   0.548
  252DIO    H1214104   4.047   0.189   0.616
  252DIO    H1314105   4.195   0.098   0.584
  252DIO    H1414106   3.915   0.032   0.829
  252DIO    H1514107   3.838   0.076   0.678
  252DIO    H1614108   3.852  -0.204   0.800
  252DIO    H1714109   3.712  -0.097   0.791
  252DIO    H1814110   3.722  -0.111   0.538
  252DIO    H1914111   3.852  -0.230   0.553
  252DIO    H2014112   3.692  -0.266   0.618
  253DIO     F114113   6.878  -0.835  -0.322
  253DIO     C114114   6.800  -0.730  -0.355
  253DIO     C214115   6.656  -0.747  -0.359
  253DIO     C314116   6.567  -0.634  -0.397
  253DIO     C414117   6.633  -0.505  -0.428
  253DIO     C514118   6.777  -0.491  -0.423
  253DIO     F214119   6.832  -0.371  -0.448
  253DIO     C614120   6.861  -0.603  -0.387
  253DIO     F314121   6.995  -0.589  -0.384
  253DIO     C714122   6.421  -0.649  -0.402
  253DIO     C814123   6.344  -0.607  -0.521
  253DIO     C914124   6.199  -0.621  -0.526
  253DIO    C1014125   6.126  -0.669  -0.410
  253DIO    C1114126   6.199  -0.719  -0.295
  253DIO    C1214127   6.343  -0.707  -0.291
  253DIO     F414128   6.408  -0.749  -0.180
  253DIO     O114129   5.994  -0.702  -0.430
  253DIO    C1314130   5.900  -0.683  -0.330
  253DIO     O214131   5.899  -0.612  -0.226
  253DIO    C1414132   5.771  -0.745  -0.361
  253DIO    C1514133   5.704  -0.725  -0.492
  253DIO     F514134   5.767  -0.657  -0.590
  253DIO    C1614135   5.574  -0.780  -0.523
  253DIO    C1714136   5.498  -0.852  -0.421
  253DIO    C1814137   5.567  -0.887  -0.297
  253DIO    C1914138   5.698  -0.833  -0.267
  253DIO     F614139   5.761  -0.882  -0.158
  253DIO    C2014140   5.357  -0.900  -0.447
  253DIO     O314141   5.287  -0.823  -0.546
  253DIO    C2114142   5.244  -0.697  -0.496
  253DIO    C2214143   5.155  -0.715  -0.374
  253DIO    C2314144   5.236  -0.795  -0.272
  253DIO     O414145   5.280  -0.918  -0.328
  253DIO    C2414146   5.022  -0.787  -0.405
  253DIO    C2514147   4.931  -0.719  -0.508
  253DIO    C2614148   4.893  -0.577  -0.472
  253DIO     H114149   6.613  -0.843  -0.333
  253DIO     H214150   6.572  -0.417  -0.447
  253DIO     H314151   6.395  -0.568  -0.608
  253DIO     H414152   6.144  -0.597  -0.616
  253DIO     H514153   6.145  -0.759  -0.211
  253DIO     H614154   5.535  -0.770  -0.624
  253DIO     H714155   5.524  -0.959  -0.228
  253DIO     H814156   5.367  -1.001  -0.491
  253DIO     H914157   5.330  -0.635  -0.473
  253DIO    H1014158   5.191  -0.646  -0.577
  253DIO    H1114159   5.132  -0.616  -0.331
  253DIO    H1214160   5.174  -0.818  -0.184
  253DIO    H1314161   5.322  -0.737  -0.236
  253DIO    H1414162   5.042  -0.889  -0.439
  253DIO    H1514163   4.966  -0.797  -0.311
  253DIO    H1614164   4.979  -0.721  -0.607
  253DIO    H1714165   4.840  -0.779  -0.517
  253DIO    H1814166   4.849  -0.572  -0.372
  253DIO    H1914167   4.979  -0.510  -0.475
  253DIO    H2014168   4.819  -0.539  -0.543
  254DIO     F114169  10.945   2.737   5.690
  254DIO     C114170  10.868   2.747   5.800
  254DIO     C214171  10.723   2.754   5.785
  254DIO     C314172  10.635   2.768   5.902
  254DIO     C414173  10.700   2.772   6.035
  254DIO     C514174  10.844   2.765   6.048
  254DIO     F214175  10.900   2.764   6.171
  254DIO     C614176  10.928   2.752   5.931
  254DIO     F314177  11.062   2.746   5.944
  254DIO     C714178  10.488   2.777   5.889
  254DIO     C814179  10.411   2.884   5.955
  254DIO     C914180  10.266   2.892   5.942
  254DIO    C1014181  10.194   2.789   5.872
  254DIO    C1114182  10.266   2.686   5.799
  254DIO    C1214183  10.410   2.679   5.809
  254DIO     F414184  10.475   2.580   5.745
  254DIO     O114185  10.062   2.815   5.843
  254DIO    C1314186   9.967   2.713   5.841
  254DIO     O214187   9.966   2.597   5.889
  254DIO    C1414188   9.838   2.757   5.787
  254DIO    C1514189   9.772   2.881   5.833
  254DIO     F514190   9.834   2.962   5.920
  254DIO    C1614191   9.641   2.922   5.785
  254DIO    C1714192   9.565   2.837   5.694
  254DIO    C1814193   9.634   2.723   5.634
  254DIO    C1914194   9.766   2.683   5.681
  254DIO     F614195   9.828   2.586   5.611
  254DIO    C2014196   9.424   2.873   5.653
  254DIO     O314197   9.355   2.953   5.748
  254DIO    C2114198   9.311   2.879   5.861
  254DIO    C2214199   9.222   2.762   5.819
  254DIO    C2314200   9.303   2.679   5.719
  254DIO     O414201   9.347   2.760   5.610
  254DIO    C2414202   9.089   2.808   5.754
  254DIO    C2514203   8.999   2.895   5.842
  254DIO    C2614204   8.960   2.830   5.974
  254DIO     H114205  10.681   2.750   5.685
  254DIO     H214206  10.640   2.772   6.125
  254DIO     H314207  10.463   2.961   6.011
  254DIO     H414208  10.211   2.976   5.984
  254DIO     H514209  10.212   2.612   5.742
  254DIO     H614210   9.603   3.018   5.817
  254DIO     H714211   9.591   2.670   5.550
  254DIO     H814212   9.434   2.936   5.563
  254DIO     H914213   9.398   2.843   5.918
  254DIO    H1014214   9.258   2.947   5.928
  254DIO    H1114215   9.200   2.700   5.906
  254DIO    H1214216   9.242   2.598   5.678
  254DIO    H1314217   9.389   2.632   5.768
  254DIO    H1414218   9.109   2.863   5.662
  254DIO    H1514219   9.033   2.718   5.725
  254DIO    H1614220   9.046   2.992   5.861
  254DIO    H1714221   8.907   2.916   5.786
  254DIO    H1814222   8.916   2.731   5.958
  254DIO    H1914223   9.047   2.819   6.040
  254DIO    H2014224   8.887   2.892   6.026
  255DIO     F114225   2.137   0.642   2.098
  255DIO     C114226   2.060   0.743   2.054
  255DIO     C214227   1.916   0.726   2.052
  255DIO     C314228   1.827   0.834   2.003
  255DIO     C414229   1.892   0.959   1.958
  255DIO     C514230   2.037   0.973   1.961
  255DIO     F214231   2.092   1.090   1.924
  255DIO     C614232   2.120   0.866   2.010
  255DIO     F314233   2.254   0.880   2.011
  255DIO     C714234   1.680   0.818   1.999
  255DIO     C814235   1.603   0.849   1.876
  255DIO     C914236   1.459   0.834   1.872
  255DIO    C1014237   1.386   0.799   1.993
  255DIO    C1114238   1.458   0.761   2.113
  255DIO    C1214239   1.603   0.773   2.116
  255DIO     F414240   1.667   0.743   2.230
  255DIO     O114241   1.254   0.763   1.976
  255DIO    C1314242   1.159   0.793   2.074
  255DIO     O214243   1.158   0.874   2.170
  255DIO    C1414244   1.030   0.728   2.049
  255DIO    C1514245   0.964   0.733   1.917
  255DIO     F514246   1.026   0.791   1.813
  255DIO    C1614247   0.833   0.675   1.893
  255DIO    C1714248   0.757   0.615   2.002
  255DIO    C1814249   0.826   0.593   2.128
  255DIO    C1914250   0.958   0.649   2.152
  255DIO     F614251   1.020   0.613   2.266
  255DIO    C2014252   0.617   0.564   1.980
  255DIO     O314253   0.547   0.630   1.874
  255DIO    C2114254   0.503   0.761   1.910
  255DIO    C2214255   0.414   0.757   2.034
  255DIO    C2314256   0.495   0.687   2.144
  255DIO     O414257   0.539   0.559   2.101
  255DIO    C2414258   0.281   0.681   2.011
  255DIO    C2514259   0.191   0.738   1.901
  255DIO    C2614260   0.152   0.883   1.922
  255DIO     H114261   1.873   0.633   2.087
  255DIO     H214262   1.832   1.045   1.930
  255DIO     H314263   1.655   0.877   1.785
  255DIO     H414264   1.403   0.848   1.780
  255DIO     H514265   1.404   0.729   2.201
  255DIO     H614266   0.795   0.675   1.791
  255DIO     H714267   0.783   0.529   2.205
  255DIO     H814268   0.626   0.460   1.948
  255DIO     H914269   0.590   0.826   1.927
  255DIO    H1014270   0.450   0.803   1.824
  255DIO    H1114271   0.392   0.859   2.066
  255DIO    H1214272   0.434   0.673   2.234
  255DIO    H1314273   0.581   0.748   2.173
  255DIO    H1414274   0.301   0.576   1.987
  255DIO    H1514275   0.225   0.681   2.105
  255DIO    H1614276   0.238   0.726   1.803
  255DIO    H1714277   0.099   0.678   1.898
  255DIO    H1814278   0.108   0.899   2.021
  255DIO    H1914279   0.239   0.950   1.912
  255DIO    H2014280   0.079   0.914   1.847
  256DIO     F114281   7.390   7.494   1.170
  256DIO     C114282   7.313   7.456   1.273
  256DIO     C214283   7.168   7.469   1.262
  256DIO     C314284   7.080   7.431   1.374
  256DIO     C414285   7.145   7.376   1.496
  256DIO     C514286   7.289   7.364   1.504
  256DIO     F214287   7.345   7.310   1.614
  256DIO     C614288   7.373   7.403   1.393
  256DIO     F314289   7.507   7.393   1.402
  256DIO     C714290   6.933   7.444   1.366
  256DIO     C814291   6.856   7.512   1.472
  256DIO     C914292   6.711   7.525   1.464
  256DIO    C1014293   6.639   7.462   1.355
  256DIO    C1114294   6.711   7.401   1.245
  256DIO    C1214295   6.855   7.391   1.252
  256DIO     F414296   6.920   7.329   1.151
  256DIO     O114297   6.507   7.499   1.341
  256DIO    C1314298   6.412   7.407   1.295
  256DIO     O214299   6.411   7.282   1.288
  256DIO    C1414300   6.283   7.470   1.265
  256DIO    C1514301   6.217   7.562   1.361
  256DIO     F514302   6.279   7.598   1.475
  256DIO    C1614303   6.086   7.620   1.336
  256DIO    C1714304   6.010   7.583   1.216
  256DIO    C1814305   6.079   7.507   1.113
  256DIO    C1914306   6.211   7.450   1.138
  256DIO     F614307   6.273   7.393   1.032
  256DIO    C2014308   5.869   7.633   1.195
  256DIO     O314309   5.800   7.664   1.316
  256DIO    C2114310   5.756   7.548   1.385
  256DIO    C2214311   5.667   7.461   1.297
  256DIO    C2314312   5.748   7.430   1.171
  256DIO     O414313   5.792   7.550   1.108
  256DIO    C2414314   5.534   7.530   1.258
  256DIO    C2514315   5.444   7.571   1.375
  256DIO    C2614316   5.405   7.455   1.466
  256DIO     H114317   7.126   7.508   1.171
  256DIO     H214318   7.085   7.337   1.577
  256DIO     H314319   6.908   7.558   1.556
  256DIO     H414320   6.656   7.582   1.538
  256DIO     H514321   6.657   7.360   1.162
  256DIO     H614322   6.048   7.693   1.406
  256DIO     H714323   6.036   7.495   1.014
  256DIO     H814324   5.879   7.729   1.142
  256DIO     H914325   5.843   7.491   1.420
  256DIO    H1014326   5.703   7.581   1.475
  256DIO    H1114327   5.645   7.368   1.348
  256DIO    H1214328   5.687   7.375   1.099
  256DIO    H1314329   5.834   7.366   1.195
  256DIO    H1414330   5.554   7.620   1.198
  256DIO    H1514331   5.478   7.463   1.193
  256DIO    H1614332   5.491   7.650   1.434
  256DIO    H1714333   5.352   7.615   1.334
  256DIO    H1814334   5.361   7.373   1.409
  256DIO    H1914335   5.492   7.417   1.521
  256DIO    H2014336   5.332   7.488   1.540
  257DIO     F114337   7.634   5.942   8.373
  257DIO     C114338   7.556   5.878   8.463
  257DIO     C214339   7.412   5.893   8.456
  257DIO     C314340   7.323   5.826   8.553
  257DIO     C414341   7.389   5.741   8.655
  257DIO     C514342   7.533   5.727   8.660
  257DIO     F214343   7.589   5.646   8.752
  257DIO     C614344   7.617   5.795   8.564
  257DIO     F314345   7.751   5.782   8.570
  257DIO     C714346   7.177   5.841   8.549
  257DIO     C814347   7.100   5.878   8.670
  257DIO     C914348   6.955   5.893   8.665
  257DIO    C1014349   6.883   5.861   8.544
  257DIO    C1114350   6.955   5.832   8.421
  257DIO    C1214351   7.099   5.820   8.425
  257DIO     F414352   7.164   5.788   8.311
  257DIO     O114353   6.750   5.900   8.540
  257DIO    C1314354   6.656   5.825   8.471
  257DIO     O214355   6.655   5.706   8.430
  257DIO    C1414356   6.527   5.893   8.459
  257DIO    C1514357   6.460   5.956   8.575
  257DIO     F514358   6.523   5.960   8.695
  257DIO    C1614359   6.330   6.018   8.567
  257DIO    C1714360   6.254   6.015   8.442
  257DIO    C1814361   6.323   5.969   8.322
  257DIO    C1914362   6.454   5.908   8.331
  257DIO     F614363   6.517   5.881   8.214
  257DIO    C2014364   6.113   6.069   8.435
  257DIO     O314365   6.043   6.067   8.560
  257DIO    C2114366   6.000   5.936   8.595
  257DIO    C2214367   5.911   5.876   8.487
  257DIO    C2314368   5.992   5.880   8.357
  257DIO     O414369   6.036   6.012   8.328
  257DIO    C2414370   5.778   5.953   8.468
  257DIO    C2514371   5.687   5.961   8.591
  257DIO    C2614372   5.649   5.825   8.648
  257DIO     H114373   7.370   5.955   8.378
  257DIO     H214374   7.328   5.682   8.723
  257DIO     H314375   7.151   5.899   8.762
  257DIO     H414376   6.900   5.928   8.751
  257DIO     H514377   6.901   5.815   8.329
  257DIO     H614378   6.292   6.070   8.654
  257DIO     H714379   6.280   5.985   8.224
  257DIO     H814380   6.123   6.176   8.409
  257DIO     H914381   6.086   5.872   8.614
  257DIO    H1014382   5.947   5.943   8.691
  257DIO    H1114383   5.888   5.772   8.511
  257DIO    H1214384   5.931   5.846   8.273
  257DIO    H1314385   6.078   5.812   8.363
  257DIO    H1414386   5.798   6.056   8.435
  257DIO    H1514387   5.722   5.905   8.387
  257DIO    H1614388   5.735   6.021   8.670
  257DIO    H1714389   5.596   6.014   8.563
  257DIO    H1814390   5.605   5.761   8.571
  257DIO    H1914391   5.736   5.773   8.691
  257DIO    H2014392   5.575   5.837   8.728
  258DIO     F114393   4.670   1.894   6.323
  258DIO     C114394   4.593   1.896   6.433
  258DIO     C214395   4.448   1.904   6.418
  258DIO     C314396   4.360   1.908   6.536
  258DIO     C414397   4.425   1.901   6.669
  258DIO     C514398   4.569   1.892   6.681
  258DIO     F214399   4.625   1.882   6.803
  258DIO     C614400   4.653   1.889   6.564
  258DIO     F314401   4.787   1.883   6.576
  258DIO     C714402   4.213   1.918   6.524
  258DIO     C814403   4.136   2.019   6.599
  258DIO     C914404   3.991   2.028   6.587
  258DIO    C1014405   3.919   1.931   6.507
  258DIO    C1114406   3.991   1.835   6.426
  258DIO    C1214407   4.135   1.827   6.437
  258DIO     F414408   4.200   1.733   6.365
  258DIO     O114409   3.787   1.960   6.481
  258DIO    C1314410   3.692   1.858   6.471
  258DIO     O214411   3.691   1.738   6.509
  258DIO    C1414412   3.563   1.906   6.420
  258DIO    C1514413   3.497   2.026   6.476
  258DIO     F514414   3.559   2.100   6.570
  258DIO    C1614415   3.366   2.071   6.432
  258DIO    C1714416   3.290   1.994   6.334
  258DIO    C1814417   3.359   1.885   6.265
  258DIO    C1914418   3.491   1.841   6.308
  258DIO     F614419   3.553   1.750   6.231
  258DIO    C2014420   3.149   2.033   6.296
  258DIO     O314421   3.080   2.105   6.398
  258DIO    C2114422   3.036   2.022   6.505
  258DIO    C2214423   2.947   1.909   6.453
  258DIO    C2314424   3.028   1.834   6.347
  258DIO     O414425   3.072   1.924   6.245
  258DIO    C2414426   2.814   1.960   6.392
  258DIO    C2514427   2.724   2.039   6.487
  258DIO    C2614428   2.685   1.964   6.613
  258DIO     H114429   4.406   1.907   6.318
  258DIO     H214430   4.365   1.894   6.759
  258DIO     H314431   4.188   2.092   6.660
  258DIO     H414432   3.936   2.108   6.635
  258DIO     H514433   3.937   1.766   6.363
  258DIO     H614434   3.328   2.164   6.471
  258DIO     H714435   3.316   1.839   6.177
  258DIO     H814436   3.159   2.103   6.212
  258DIO     H914437   3.123   1.981   6.558
  258DIO    H1014438   2.983   2.084   6.577
  258DIO    H1114439   2.925   1.840   6.535
  258DIO    H1214440   2.967   1.757   6.299
  258DIO    H1314441   3.114   1.783   6.392
  258DIO    H1414442   2.834   2.022   6.304
  258DIO    H1514443   2.758   1.873   6.356
  258DIO    H1614444   2.771   2.134   6.514
  258DIO    H1714445   2.632   2.065   6.432
  258DIO    H1814446   2.641   1.866   6.589
  258DIO    H1914447   2.772   1.948   6.678
  258DIO    H2014448   2.612   2.021   6.670
  259DIO     F114449  10.974  10.705   2.518
  259DIO     C114450  10.897  10.728   2.626
  259DIO     C214451  10.753  10.734   2.610
  259DIO     C314452  10.664  10.761   2.725
  259DIO     C414453  10.729  10.780   2.856
  259DIO     C514454  10.874  10.775   2.870
  259DIO     F214455  10.929  10.788   2.992
  259DIO     C614456  10.957  10.748   2.755
  259DIO     F314457  11.091  10.744   2.769
  259DIO     C714458  10.517  10.768   2.710
  259DIO     C814459  10.440  10.883   2.764
  259DIO     C914460  10.296  10.889   2.750
  259DIO    C1014461  10.223  10.778   2.692
  259DIO    C1114462  10.295  10.667   2.632
  259DIO    C1214463  10.440  10.662   2.643
  259DIO     F414464  10.504  10.556   2.591
  259DIO     O114465  10.091  10.801   2.660
  259DIO    C1314466   9.996  10.699   2.671
  259DIO     O214467   9.995  10.589   2.731
  259DIO    C1414468   9.867  10.736   2.611
  259DIO    C1514469   9.801  10.865   2.643
  259DIO     F514470   9.863  10.956   2.720
  259DIO    C1614471   9.670  10.900   2.591
  259DIO    C1714472   9.594  10.805   2.510
  259DIO    C1814473   9.663  10.685   2.464
  259DIO    C1914474   9.795  10.651   2.515
  259DIO     F614475   9.857  10.546   2.456
  259DIO    C2014476   9.454  10.836   2.464
  259DIO     O314477   9.384  10.927   2.550
  259DIO    C2114478   9.340  10.866   2.671
  259DIO    C2214479   9.251  10.746   2.643
  259DIO    C2314480   9.332  10.651   2.553
  259DIO     O414481   9.376  10.719   2.436
  259DIO    C2414482   9.118  10.783   2.573
  259DIO    C2514483   9.028  10.880   2.650
  259DIO    C2614484   8.989  10.831   2.789
  259DIO     H114485  10.710  10.717   2.511
  259DIO     H214486  10.669  10.791   2.946
  259DIO     H314487  10.492  10.966   2.810
  259DIO     H414488  10.240  10.977   2.782
  259DIO     H514489  10.241  10.587   2.583
  259DIO     H614490   9.632  10.999   2.610
  259DIO     H714491   9.620  10.623   2.386
  259DIO     H814492   9.463  10.888   2.369
  259DIO     H914493   9.427  10.837   2.731
  259DIO    H1014494   9.287  10.942   2.730
  259DIO    H1114495   9.229  10.694   2.737
  259DIO    H1214496   9.271  10.566   2.522
  259DIO    H1314497   9.418  10.610   2.608
  259DIO    H1414498   9.138  10.827   2.475
  259DIO    H1514499   9.062  10.691   2.555
  259DIO    H1614500   9.075  10.978   2.658
  259DIO    H1714501   8.936  10.895   2.592
  259DIO    H1814502   8.945  10.731   2.785
  259DIO    H1914503   9.076  10.828   2.856
  259DIO    H2014504   8.916  10.899   2.833
  260DIO     F114505   3.686   5.973   2.071
  260DIO     C114506   3.608   5.910   1.981
  260DIO     C214507   3.464   5.911   1.998
  260DIO     C314508   3.375   5.840   1.903
  260DIO     C414509   3.441   5.771   1.790
  260DIO     C514510   3.585   5.771   1.775
  260DIO     F214511   3.641   5.710   1.668
  260DIO     C614512   3.669   5.840   1.870
  260DIO     F314513   3.803   5.839   1.856
  260DIO     C714514   3.229   5.840   1.919
  260DIO     C814515   3.152   5.713   1.915
  260DIO     C914516   3.007   5.713   1.930
  260DIO    C1014517   2.935   5.838   1.940
  260DIO    C1114518   3.007   5.963   1.952
  260DIO    C1214519   3.151   5.964   1.939
  260DIO     F414520   3.216   6.082   1.945
  260DIO     O114521   2.802   5.829   1.978
  260DIO    C1314522   2.708   5.919   1.928
  260DIO     O214523   2.707   5.996   1.829
  260DIO    C1414524   2.579   5.908   1.997
  260DIO    C1514525   2.512   5.778   2.019
  260DIO     F514526   2.575   5.663   1.984
  260DIO    C1614527   2.382   5.766   2.081
  260DIO    C1714528   2.306   5.885   2.118
  260DIO    C1814529   2.375   6.013   2.113
  260DIO    C1914530   2.506   6.025   2.053
  260DIO     F614531   2.569   6.144   2.065
  260DIO    C2014532   2.165   5.874   2.172
  260DIO     O314533   2.095   5.757   2.129
  260DIO    C2114534   2.052   5.765   1.994
  260DIO    C2214535   1.963   5.887   1.972
  260DIO    C2314536   2.044   6.009   2.017
  260DIO     O414537   2.088   5.993   2.152
  260DIO    C2414538   1.830   5.880   2.051
  260DIO    C2514539   1.739   5.761   2.018
  260DIO    C2614540   1.701   5.751   1.871
  260DIO     H114541   3.422   5.965   2.082
  260DIO     H214542   3.380   5.726   1.712
  260DIO     H314543   3.203   5.619   1.905
  260DIO     H414544   2.952   5.620   1.935
  260DIO     H514545   2.953   6.056   1.964
  260DIO     H614546   2.344   5.666   2.102
  260DIO     H714547   2.332   6.101   2.159
  260DIO     H814548   2.175   5.864   2.280
  260DIO     H914549   2.138   5.768   1.927
  260DIO    H1014550   1.999   5.672   1.970
  260DIO    H1114551   1.940   5.897   1.865
  260DIO    H1214552   1.983   6.099   2.012
  260DIO    H1314553   2.130   6.025   1.951
  260DIO    H1414554   1.850   5.878   2.159
  260DIO    H1514555   1.774   5.972   2.032
  260DIO    H1614556   1.787   5.667   2.050
  260DIO    H1714557   1.648   5.770   2.078
  260DIO    H1814558   1.657   5.845   1.836
  260DIO    H1914559   1.788   5.727   1.809
  260DIO    H2014560   1.627   5.671   1.857
  261DIO     F114561   1.541   7.944  10.127
  261DIO     C114562   1.463   8.048  10.161
  261DIO     C214563   1.319   8.037  10.148
  261DIO     C314564   1.230   8.150  10.183
  261DIO     C414565   1.296   8.273  10.234
  261DIO     C514566   1.440   8.282  10.246
  261DIO     F214567   1.495   8.394  10.296
  261DIO     C614568   1.524   8.170  10.210
  261DIO     F314569   1.658   8.180  10.220
  261DIO     C714570   1.084   8.142  10.170
  261DIO     C814571   1.007   8.246  10.099
  261DIO     C914572   0.862   8.237  10.086
  261DIO    C1014573   0.789   8.131  10.152
  261DIO    C1114574   0.862   8.022  10.217
  261DIO    C1214575   1.006   8.030  10.227
  261DIO     F414576   1.071   7.931  10.292
  261DIO     O114577   0.657   8.115  10.116
  261DIO    C1314578   0.563   8.072  10.209
  261DIO     O214579   0.562   8.069  10.335
  261DIO    C1414580   0.434   8.040  10.147
  261DIO    C1514581   0.367   8.132  10.053
  261DIO     F514582   0.430   8.245  10.013
  261DIO    C1614583   0.237   8.106   9.996
  261DIO    C1714584   0.161   7.988  10.036
  261DIO    C1814585   0.230   7.887  10.116
  261DIO    C1914586   0.361   7.913  10.172
  261DIO     F614587   0.424   7.810  10.232
  261DIO    C2014588   0.020   7.964   9.987
  261DIO     O314589  -0.050   8.084   9.952
  261DIO    C2114590  -0.093   8.158  10.066
  261DIO    C2214591  -0.182   8.072  10.155
  261DIO    C2314592  -0.101   7.947  10.191
  261DIO     O414593  -0.057   7.880  10.073
  261DIO    C2414594  -0.315   8.031  10.087
  261DIO    C2514595  -0.406   8.147  10.043
  261DIO    C2614596  -0.444   8.241  10.156
  261DIO     H114597   1.276   7.944  10.113
  261DIO     H214598   1.235   8.356  10.270
  261DIO     H314599   1.058   8.328  10.050
  261DIO     H414600   0.807   8.309  10.027
  261DIO     H514601   0.808   7.940  10.261
  261DIO     H614602   0.198   8.173   9.920
  261DIO     H714603   0.187   7.789  10.131
  261DIO     H814604   0.030   7.908   9.893
  261DIO     H914605  -0.007   8.194  10.122
  261DIO    H1014606  -0.146   8.247  10.030
  261DIO    H1114607  -0.205   8.127  10.247
  261DIO    H1214608  -0.163   7.877  10.248
  261DIO    H1314609  -0.015   7.973  10.254
  261DIO    H1414610  -0.295   7.968  10.000
  261DIO    H1514611  -0.371   7.968  10.157
  261DIO    H1614612  -0.358   8.203   9.962
  261DIO    H1714613  -0.497   8.104  10.001
  261DIO    H1814614  -0.488   8.187  10.240
  261DIO    H1914615  -0.358   8.297  10.192
  261DIO    H2014616  -0.518   8.314  10.120
  262DIO     F114617  10.757   2.042   4.469
  262DIO     C114618  10.679   1.945   4.417
  262DIO     C214619  10.535   1.954   4.432
  262DIO     C314620  10.446   1.848   4.379
  262DIO     C414621  10.512   1.735   4.309
  262DIO     C514622  10.656   1.728   4.296
  262DIO     F214623  10.712   1.626   4.228
  262DIO     C614624  10.740   1.833   4.349
  262DIO     F314625  10.874   1.825   4.338
  262DIO     C714626  10.300   1.854   4.394
  262DIO     C814627  10.223   1.740   4.447
  262DIO     C914628  10.078   1.746   4.461
  262DIO    C1014629  10.006   1.862   4.413
  262DIO    C1114630  10.078   1.980   4.367
  262DIO    C1214631  10.222   1.974   4.356
  262DIO     F414632  10.287   2.082   4.308
  262DIO     O114633   9.873   1.872   4.451
  262DIO    C1314634   9.779   1.929   4.366
  262DIO     O214635   9.778   1.953   4.243
  262DIO    C1414636   9.650   1.951   4.433
  262DIO    C1514637   9.584   1.844   4.511
  262DIO     F514638   9.646   1.726   4.531
  262DIO    C1614639   9.453   1.861   4.571
  262DIO    C1714640   9.377   1.984   4.551
  262DIO    C1814641   9.446   2.097   4.488
  262DIO    C1914642   9.577   2.080   4.429
  262DIO     F614643   9.640   2.192   4.386
  262DIO    C2014644   9.236   1.999   4.603
  262DIO     O314645   9.167   1.875   4.618
  262DIO    C2114646   9.123   1.821   4.494
  262DIO    C2214647   9.034   1.921   4.420
  262DIO    C2314648   9.115   2.050   4.405
  262DIO     O414649   9.159   2.096   4.532
  262DIO    C2414650   8.901   1.950   4.493
  262DIO    C2514651   8.811   1.829   4.518
  262DIO    C2614652   8.772   1.754   4.391
  262DIO     H114653  10.493   2.040   4.482
  262DIO     H214654  10.451   1.659   4.260
  262DIO     H314655  10.274   1.651   4.481
  262DIO     H414656  10.023   1.666   4.507
  262DIO     H514657  10.024   2.068   4.336
  262DIO     H614658   9.415   1.782   4.635
  262DIO     H714659   9.403   2.196   4.490
  262DIO     H814660   9.246   2.039   4.705
  262DIO     H914661   9.210   1.794   4.433
  262DIO    H1014662   9.070   1.728   4.514
  262DIO    H1114663   9.011   1.882   4.320
  262DIO    H1214664   9.054   2.128   4.360
  262DIO    H1314665   9.201   2.034   4.339
  262DIO    H1414666   8.921   1.997   4.590
  262DIO    H1514667   8.845   2.023   4.434
  262DIO    H1614668   8.858   1.760   4.588
  262DIO    H1714669   8.719   1.864   4.567
  262DIO    H1814670   8.728   1.821   4.317
  262DIO    H1914671   8.859   1.704   4.346
  262DIO    H2014672   8.698   1.676   4.414
  263DIO     F114673  10.631   5.706   1.031
  263DIO     C114674  10.554   5.710   0.921
  263DIO     C214675  10.410   5.701   0.935
  263DIO     C314676  10.321   5.703   0.817
  263DIO     C414677  10.386   5.717   0.685
  263DIO     C514678  10.531   5.726   0.673
  263DIO     F214679  10.586   5.743   0.551
  263DIO     C614680  10.614   5.723   0.791
  263DIO     F314681  10.748   5.731   0.778
  263DIO     C714682  10.174   5.693   0.829
  263DIO     C814683  10.097   5.595   0.749
  263DIO     C914684   9.953   5.586   0.760
  263DIO    C1014685   9.880   5.679   0.844
  263DIO    C1114686   9.953   5.771   0.930
  263DIO    C1214687  10.097   5.779   0.921
  263DIO     F414688  10.162   5.868   0.997
  263DIO     O114689   9.748   5.648   0.869
  263DIO    C1314690   9.653   5.750   0.885
  263DIO     O214691   9.652   5.871   0.853
  263DIO    C1414692   9.524   5.699   0.933
  263DIO    C1514693   9.458   5.582   0.870
  263DIO     F514694   9.521   5.513   0.773
  263DIO    C1614695   9.327   5.535   0.912
  263DIO    C1714696   9.251   5.607   1.014
  263DIO    C1814697   9.320   5.711   1.089
  263DIO    C1914698   9.452   5.758   1.048
  263DIO     F614699   9.514   5.844   1.130
  263DIO    C2014700   9.111   5.566   1.050
  263DIO     O314701   9.041   5.499   0.944
  263DIO    C2114702   8.997   5.588   0.842
  263DIO    C2214703   8.908   5.698   0.900
  263DIO    C2314704   8.989   5.767   1.010
  263DIO     O414705   9.033   5.672   1.107
  263DIO    C2414706   8.776   5.644   0.958
  263DIO    C2514707   8.685   5.570   0.859
  263DIO    C2614708   8.646   5.652   0.737
  263DIO     H114709  10.367   5.692   1.034
  263DIO     H214710  10.326   5.729   0.595
  263DIO     H314711  10.149   5.526   0.683
  263DIO     H414712   9.898   5.509   0.708
  263DIO     H514713   9.898   5.836   0.997
  263DIO     H614714   9.289   5.444   0.868
  263DIO     H714715   9.277   5.753   1.179
  263DIO     H814716   9.120   5.491   1.130
  263DIO     H914717   9.084   5.632   0.792
  263DIO    H1014718   8.944   5.529   0.767
  263DIO    H1114719   8.886   5.771   0.822
  263DIO    H1214720   8.928   5.841   1.062
  263DIO    H1314721   9.075   5.820   0.968
  263DIO    H1414722   8.795   5.577   1.042
  263DIO    H1514723   8.719   5.729   0.999
  263DIO    H1614724   8.732   5.476   0.827
  263DIO    H1714725   8.593   5.541   0.912
  263DIO    H1814726   8.603   5.748   0.766
  263DIO    H1914727   8.733   5.671   0.673
  263DIO    H2014728   8.573   5.597   0.677
  264DIO     F114729   5.509   2.574   8.760
  264DIO     C114730   5.431   2.665   8.698
  264DIO     C214731   5.287   2.648   8.699
  264DIO     C314732   5.198   2.745   8.630
  264DIO     C414733   5.264   2.859   8.563
  264DIO     C514734   5.408   2.874   8.563
  264DIO     F214735   5.464   2.982   8.504
  264DIO     C614736   5.492   2.778   8.631
  264DIO     F314737   5.626   2.792   8.629
  264DIO     C714738   5.052   2.729   8.629
  264DIO     C814739   4.975   2.735   8.503
  264DIO     C914740   4.830   2.720   8.502
  264DIO    C1014741   4.758   2.708   8.627
  264DIO    C1114742   4.830   2.694   8.752
  264DIO    C1214743   4.974   2.706   8.753
  264DIO     F414744   5.039   2.698   8.871
  264DIO     O114745   4.625   2.670   8.617
  264DIO    C1314746   4.531   2.718   8.708
  264DIO     O214747   4.530   2.816   8.787
  264DIO    C1414748   4.402   2.649   8.696
  264DIO    C1514749   4.335   2.630   8.565
  264DIO     F514750   4.398   2.667   8.452
  264DIO    C1614751   4.205   2.568   8.552
  264DIO    C1714752   4.129   2.529   8.670
  264DIO    C1814753   4.198   2.531   8.799
  264DIO    C1914754   4.329   2.592   8.812
  264DIO     F614755   4.392   2.577   8.930
  264DIO    C2014756   3.988   2.475   8.659
  264DIO     O314757   3.918   2.520   8.542
  264DIO    C2114758   3.875   2.655   8.553
  264DIO    C2214759   3.786   2.675   8.675
  264DIO    C2314760   3.867   2.627   8.796
  264DIO     O414761   3.911   2.493   8.778
  264DIO    C2414762   3.653   2.596   8.667
  264DIO    C2514763   3.562   2.631   8.548
  264DIO    C2614764   3.524   2.778   8.541
  264DIO     H114765   5.245   2.563   8.751
  264DIO     H214766   5.203   2.938   8.519
  264DIO     H314767   5.026   2.746   8.408
  264DIO     H414768   4.775   2.716   8.409
  264DIO     H514769   4.776   2.679   8.844
  264DIO     H614770   4.167   2.549   8.452
  264DIO     H714771   4.155   2.483   8.886
  264DIO     H814772   3.998   2.367   8.647
  264DIO     H914773   3.961   2.722   8.558
  264DIO    H1014774   3.822   2.681   8.461
  264DIO    H1114775   3.763   2.781   8.688
  264DIO    H1214776   3.806   2.630   8.887
  264DIO    H1314777   3.953   2.693   8.814
  264DIO    H1414778   3.673   2.488   8.663
  264DIO    H1514779   3.597   2.614   8.759
  264DIO    H1614780   3.610   2.601   8.454
  264DIO    H1714781   3.471   2.571   8.557
  264DIO    H1814782   3.480   2.812   8.636
  264DIO    H1914783   3.611   2.841   8.519
  264DIO    H2014784   3.450   2.794   8.462
  265DIO     F114785   8.852   7.142   2.644
  265DIO     C114786   8.774   7.039   2.605
  265DIO     C214787   8.630   7.050   2.618
  265DIO     C314788   8.541   6.938   2.578
  265DIO     C414789   8.607   6.818   2.522
  265DIO     C514790   8.751   6.810   2.509
  265DIO     F214791   8.807   6.700   2.454
  265DIO     C614792   8.835   6.920   2.550
  265DIO     F314793   8.969   6.911   2.539
  265DIO     C714794   8.395   6.947   2.592
  265DIO     C814795   8.318   6.839   2.658
  265DIO     C914796   8.173   6.847   2.671
  265DIO    C1014797   8.101   6.957   2.610
  265DIO    C1114798   8.173   7.068   2.551
  265DIO    C1214799   8.317   7.061   2.540
  265DIO     F414800   8.382   7.163   2.480
  265DIO     O114801   7.968   6.970   2.646
  265DIO    C1314802   7.874   7.018   2.556
  265DIO     O214803   7.873   7.027   2.430
  265DIO    C1414804   7.745   7.047   2.619
  265DIO    C1514805   7.678   6.950   2.709
  265DIO     F514806   7.741   6.836   2.743
  265DIO    C1614807   7.548   6.974   2.767
  265DIO    C1714808   7.472   7.094   2.733
  265DIO    C1814809   7.541   7.198   2.658
  265DIO    C1914810   7.672   7.175   2.601
  265DIO     F614811   7.735   7.281   2.545
  265DIO    C2014812   7.331   7.115   2.783
  265DIO     O314813   7.261   6.993   2.812
  265DIO    C2114814   7.218   6.926   2.695
  265DIO    C2214815   7.129   7.016   2.610
  265DIO    C2314816   7.210   7.142   2.580
  265DIO     O414817   7.254   7.203   2.701
  265DIO    C2414818   6.996   7.053   2.679
  265DIO    C2514819   6.905   6.936   2.718
  265DIO    C2614820   6.867   6.847   2.601
  265DIO     H114821   8.588   7.141   2.658
  265DIO     H214822   8.546   6.737   2.481
  265DIO     H314823   8.369   6.755   2.702
  265DIO     H414824   8.118   6.772   2.727
  265DIO     H514825   8.119   7.152   2.510
  265DIO     H614826   7.510   6.903   2.840
  265DIO     H714827   7.498   7.297   2.648
  265DIO     H814828   7.341   7.166   2.880
  265DIO     H914829   7.304   6.892   2.637
  265DIO    H1014830   7.165   6.835   2.726
  265DIO    H1114831   7.106   6.965   2.515
  265DIO    H1214832   7.149   7.215   2.526
  265DIO    H1314833   7.296   7.119   2.516
  265DIO    H1414834   7.016   7.111   2.770
  265DIO    H1514835   6.940   7.119   2.612
  265DIO    H1614836   6.953   6.875   2.796
  265DIO    H1714837   6.814   6.976   2.762
  265DIO    H1814838   6.823   6.905   2.519
  265DIO    H1914839   6.954   6.792   2.562
  265DIO    H2014840   6.793   6.772   2.633
  266DIO     F114841   4.913   9.429   7.846
  266DIO     C114842   4.835   9.467   7.743
  266DIO     C214843   4.691   9.454   7.754
  266DIO     C314844   4.602   9.493   7.642
  266DIO     C414845   4.668   9.547   7.521
  266DIO     C514846   4.812   9.559   7.512
  266DIO     F214847   4.867   9.613   7.402
  266DIO     C614848   4.896   9.520   7.623
  266DIO     F314849   5.029   9.531   7.614
  266DIO     C714850   4.456   9.479   7.650
  266DIO     C814851   4.379   9.411   7.544
  266DIO     C914852   4.234   9.398   7.552
  266DIO    C1014853   4.161   9.461   7.661
  266DIO    C1114854   4.234   9.522   7.771
  266DIO    C1214855   4.378   9.532   7.764
  266DIO     F414856   4.443   9.594   7.865
  266DIO     O114857   4.029   9.424   7.675
  266DIO    C1314858   3.935   9.516   7.721
  266DIO     O214859   3.934   9.641   7.729
  266DIO    C1414860   3.806   9.453   7.751
  266DIO    C1514861   3.739   9.361   7.656
  266DIO     F514862   3.802   9.326   7.542
  266DIO    C1614863   3.608   9.304   7.681
  266DIO    C1714864   3.533   9.340   7.800
  266DIO    C1814865   3.601   9.417   7.903
  266DIO    C1914866   3.733   9.473   7.879
  266DIO     F614867   3.796   9.530   7.984
  266DIO    C2014868   3.392   9.290   7.822
  266DIO     O314869   3.322   9.259   7.700
  266DIO    C2114870   3.279   9.375   7.631
  266DIO    C2214871   3.190   9.462   7.720
  266DIO    C2314872   3.270   9.493   7.845
  266DIO     O414873   3.315   9.374   7.909
  266DIO    C2414874   3.057   9.393   7.758
  266DIO    C2514875   2.966   9.353   7.641
  266DIO    C2614876   2.928   9.468   7.550
  266DIO     H114877   4.648   9.415   7.846
  266DIO     H214878   4.607   9.586   7.440
  266DIO     H314879   4.430   9.366   7.460
  266DIO     H414880   4.179   9.341   7.478
  266DIO     H514881   4.179   9.564   7.855
  266DIO     H614882   3.570   9.230   7.611
  266DIO     H714883   3.559   9.428   8.002
  266DIO     H814884   3.402   9.194   7.874
  266DIO     H914885   3.365   9.432   7.596
  266DIO    H1014886   3.226   9.343   7.541
  266DIO    H1114887   3.167   9.556   7.668
  266DIO    H1214888   3.209   9.548   7.918
  266DIO    H1314889   3.357   9.557   7.822
  266DIO    H1414890   3.077   9.303   7.818
  266DIO    H1514891   3.000   9.461   7.823
  266DIO    H1614892   3.014   9.274   7.582
  266DIO    H1714893   2.874   9.309   7.683
  266DIO    H1814894   2.884   9.551   7.608
  266DIO    H1914895   3.014   9.506   7.495
  266DIO    H2014896   2.854   9.435   7.477
  267DIO     F114897   8.252   4.615   6.982
  267DIO     C114898   8.175   4.509   6.952
  267DIO     C214899   8.030   4.521   6.965
  267DIO     C314900   7.942   4.406   6.935
  267DIO     C414901   8.007   4.281   6.891
  267DIO     C514902   8.151   4.272   6.880
  267DIO     F214903   8.207   4.157   6.835
  267DIO     C614904   8.235   4.385   6.910
  267DIO     F314905   8.369   4.375   6.900
  267DIO     C714906   7.795   4.416   6.948
  267DIO     C814907   7.718   4.315   7.024
  267DIO     C914908   7.573   4.324   7.037
  267DIO    C1014909   7.501   4.428   6.965
  267DIO    C1114910   7.573   4.533   6.896
  267DIO    C1214911   7.717   4.525   6.886
  267DIO     F414912   7.782   4.620   6.816
  267DIO     O114913   7.369   4.445   7.001
  267DIO    C1314914   7.274   4.483   6.906
  267DIO     O214915   7.273   4.481   6.780
  267DIO    C1414916   7.145   4.518   6.966
  267DIO    C1514917   7.079   4.431   7.065
  267DIO     F514918   7.141   4.320   7.110
  267DIO    C1614919   6.948   4.460   7.121
  267DIO    C1714920   6.872   4.576   7.074
  267DIO    C1814921   6.941   4.673   6.990
  267DIO    C1914922   7.073   4.644   6.936
  267DIO     F614923   7.135   4.744   6.870
  267DIO    C2014924   6.731   4.602   7.123
  267DIO     O314925   6.662   4.484   7.163
  267DIO    C2114926   6.618   4.405   7.053
  267DIO    C2214927   6.529   4.486   6.960
  267DIO    C2314928   6.610   4.609   6.918
  267DIO     O414929   6.654   4.682   7.032
  267DIO    C2414930   6.396   4.530   7.025
  267DIO    C2514931   6.306   4.417   7.075
  267DIO    C2614932   6.267   4.317   6.967
  267DIO     H114933   7.988   4.616   6.996
  267DIO     H214934   7.947   4.197   6.859
  267DIO     H314935   7.770   4.236   7.077
  267DIO     H414936   7.518   4.255   7.099
  267DIO     H514937   7.519   4.612   6.847
  267DIO     H614938   6.910   4.396   7.199
  267DIO     H714939   6.898   4.770   6.970
  267DIO     H814940   6.741   4.662   7.214
  267DIO     H914941   6.705   4.365   6.999
  267DIO    H1014942   6.565   4.318   7.093
  267DIO    H1114943   6.507   4.427   6.870
  267DIO    H1214944   6.549   4.677   6.857
  267DIO    H1314945   6.696   4.580   6.857
  267DIO    H1414946   6.416   4.597   7.110
  267DIO    H1514947   6.340   4.590   6.952
  267DIO    H1614948   6.353   4.364   7.159
  267DIO    H1714949   6.214   4.462   7.115
  267DIO    H1814950   6.223   4.367   6.880
  267DIO    H1914951   6.354   4.259   6.933
  267DIO    H2014952   6.194   4.246   7.006
  268DIO     F114953   8.630  -0.133   4.452
  268DIO     C114954   8.552  -0.220   4.519
  268DIO     C214955   8.408  -0.203   4.517
  268DIO     C314956   8.319  -0.296   4.591
  268DIO     C414957   8.385  -0.406   4.665
  268DIO     C514958   8.529  -0.421   4.665
  268DIO     F214959   8.584  -0.525   4.730
  268DIO     C614960   8.613  -0.329   4.592
  268DIO     F314961   8.746  -0.343   4.594
  268DIO     C714962   8.173  -0.280   4.591
  268DIO     C814963   8.096  -0.279   4.717
  268DIO     C914964   7.951  -0.264   4.717
  268DIO    C1014965   7.878  -0.259   4.592
  268DIO    C1114966   7.951  -0.252   4.466
  268DIO    C1214967   8.095  -0.264   4.466
  268DIO     F414968   8.160  -0.263   4.348
  268DIO     O114969   7.746  -0.220   4.599
  268DIO    C1314970   7.652  -0.273   4.512
  268DIO     O214971   7.651  -0.376   4.438
  268DIO    C1414972   7.522  -0.204   4.519
  268DIO    C1514973   7.456  -0.177   4.649
  268DIO     F514974   7.519  -0.208   4.765
  268DIO    C1614975   7.325  -0.115   4.659
  268DIO    C1714976   7.250  -0.083   4.538
  268DIO    C1814977   7.318  -0.092   4.410
  268DIO    C1914978   7.450  -0.153   4.401
  268DIO     F614979   7.512  -0.146   4.281
  268DIO    C2014980   7.109  -0.028   4.547
  268DIO     O314981   7.039  -0.067   4.666
  268DIO    C2114982   6.995  -0.202   4.663
  268DIO    C2214983   6.907  -0.228   4.542
  268DIO    C2314984   6.987  -0.188   4.418
  268DIO     O414985   7.032  -0.053   4.428
  268DIO    C2414986   6.774  -0.149   4.546
  268DIO    C2514987   6.683  -0.177   4.666
  268DIO    C2614988   6.645  -0.324   4.681
  268DIO     H114989   8.365  -0.122   4.460
  268DIO     H214990   8.324  -0.482   4.713
  268DIO     H314991   8.147  -0.285   4.812
  268DIO     H414992   7.896  -0.255   4.810
  268DIO     H514993   7.896  -0.243   4.373
  268DIO     H614994   7.287  -0.090   4.757
  268DIO     H714995   7.275  -0.049   4.320
  268DIO     H814996   7.119   0.081   4.553
  268DIO     H914997   7.082  -0.269   4.662
  268DIO    H1014998   6.943  -0.222   4.756
  268DIO    H1114999   6.884  -0.335   4.535
  268DIO    H1215000   6.926  -0.196   4.328
  268DIO    H1315001   7.073  -0.255   4.404
  268DIO    H1415002   6.794  -0.041   4.543
  268DIO    H1515003   6.717  -0.172   4.454
  268DIO    H1615004   6.730  -0.142   4.758
  268DIO    H1715005   6.591  -0.118   4.654
  268DIO    H1815006   6.601  -0.363   4.589
  268DIO    H1915007   6.731  -0.385   4.708
  268DIO    H2015008   6.571  -0.335   4.762
  269DIO     F115009   4.242   5.587   7.433
  269DIO     C115010   4.164   5.661   7.515
  269DIO     C215011   4.020   5.658   7.498
  269DIO     C315012   3.931   5.739   7.584
  269DIO     C415013   3.997   5.822   7.688
  269DIO     C515014   4.141   5.823   7.703
  269DIO     F215015   4.197   5.897   7.801
  269DIO     C615016   4.225   5.743   7.617
  269DIO     F315017   4.359   5.746   7.631
  269DIO     C715018   3.785   5.738   7.568
  269DIO     C815019   3.708   5.864   7.557
  269DIO     C915020   3.563   5.863   7.542
  269DIO    C1015021   3.491   5.737   7.547
  269DIO    C1115022   3.563   5.611   7.550
  269DIO    C1215023   3.707   5.612   7.563
  269DIO     F415024   3.772   5.495   7.571
  269DIO     O115025   3.358   5.741   7.508
  269DIO    C1315026   3.264   5.658   7.568
  269DIO     O215027   3.263   5.594   7.676
  269DIO    C1415028   3.135   5.661   7.499
  269DIO    C1515029   3.069   5.788   7.461
  269DIO     F515030   3.131   5.905   7.482
  269DIO    C1615031   2.938   5.792   7.399
  269DIO    C1715032   2.862   5.669   7.376
  269DIO    C1815033   2.931   5.542   7.396
  269DIO    C1915034   3.062   5.538   7.458
  269DIO     F615035   3.125   5.418   7.460
  269DIO    C2015036   2.721   5.673   7.321
  269DIO     O315037   2.652   5.795   7.350
  269DIO    C2115038   2.608   5.803   7.485
  269DIO    C2215039   2.519   5.685   7.521
  269DIO    C2315040   2.600   5.558   7.491
  269DIO     O415041   2.644   5.558   7.355
  269DIO    C2415042   2.386   5.682   7.442
  269DIO    C2515043   2.296   5.804   7.460
  269DIO    C2615044   2.257   5.832   7.605
  269DIO     H115045   3.978   5.594   7.421
  269DIO     H215046   3.936   5.876   7.760
  269DIO     H315047   3.759   5.959   7.555
  269DIO     H415048   3.508   5.954   7.525
  269DIO     H515049   3.509   5.518   7.549
  269DIO     H615050   2.900   5.888   7.366
  269DIO     H715051   2.888   5.450   7.361
  269DIO     H815052   2.731   5.670   7.212
  269DIO     H915053   2.695   5.808   7.552
  269DIO    H1015054   2.555   5.898   7.498
  269DIO    H1115055   2.496   5.687   7.628
  269DIO    H1215056   2.539   5.469   7.506
  269DIO    H1315057   2.686   5.550   7.558
  269DIO    H1415058   2.406   5.671   7.335
  269DIO    H1515059   2.330   5.593   7.472
  269DIO    H1615060   2.343   5.893   7.417
  269DIO    H1715061   2.204   5.788   7.402
  269DIO    H1815062   2.213   5.743   7.651
  269DIO    H1915063   2.344   5.863   7.664
  269DIO    H2015064   2.183   5.912   7.609
  270DIO     F115065   1.932   8.992  -0.191
  270DIO     C115066   1.855   9.078  -0.123
  270DIO     C215067   1.711   9.072  -0.139
  270DIO     C315068   1.622   9.166  -0.067
  270DIO     C415069   1.687   9.264   0.023
  270DIO     C515070   1.832   9.268   0.037
  270DIO     F215071   1.887   9.356   0.123
  270DIO     C615072   1.915   9.175  -0.035
  270DIO     F315073   2.049   9.181  -0.022
  270DIO     C715074   1.475   9.162  -0.082
  270DIO     C815075   1.398   9.285  -0.113
  270DIO     C915076   1.254   9.281  -0.128
  270DIO    C1015077   1.181   9.158  -0.103
  270DIO    C1115078   1.254   9.035  -0.080
  270DIO    C1215079   1.398   9.038  -0.067
  270DIO     F415080   1.463   8.923  -0.041
  270DIO     O115081   1.049   9.156  -0.142
  270DIO    C1315082   0.954   9.084  -0.070
  270DIO     O215083   0.953   9.037   0.047
  270DIO    C1415084   0.825   9.075  -0.139
  270DIO    C1515085   0.759   9.194  -0.196
  270DIO     F515086   0.822   9.314  -0.194
  270DIO    C1615087   0.628   9.189  -0.258
  270DIO    C1715088   0.552   9.064  -0.261
  270DIO    C1815089   0.621   8.942  -0.221
  270DIO    C1915090   0.753   8.948  -0.160
  270DIO     F615091   0.815   8.830  -0.139
  270DIO    C2015092   0.412   9.059  -0.316
  270DIO     O315093   0.342   9.184  -0.307
  270DIO    C2115094   0.298   9.214  -0.175
  270DIO    C2215095   0.209   9.102  -0.120
  270DIO    C2315096   0.290   8.973  -0.130
  270DIO     O415097   0.334   8.951  -0.264
  270DIO    C2415098   0.077   9.087  -0.198
  270DIO    C2515099  -0.014   9.211  -0.199
  270DIO    C2615100  -0.053   9.261  -0.061
  270DIO     H115101   1.668   8.997  -0.204
  270DIO     H215102   1.627   9.329   0.086
  270DIO     H315103   1.450   9.378  -0.130
  270DIO     H415104   1.199   9.369  -0.159
  270DIO     H515105   1.199   8.942  -0.066
  270DIO     H615106   0.590   9.279  -0.306
  270DIO     H715107   0.578   8.845  -0.241
  270DIO     H815108   0.421   9.039  -0.423
  270DIO     H915109   0.385   9.229  -0.109
  270DIO    H1015110   0.245   9.309  -0.177
  270DIO    H1115111   0.187   9.122  -0.015
  270DIO    H1215112   0.229   8.887  -0.101
  270DIO    H1315113   0.376   8.975  -0.062
  270DIO    H1415114   0.096   9.059  -0.302
  270DIO    H1515115   0.020   9.004  -0.154
  270DIO    H1615116   0.033   9.292  -0.256
  270DIO    H1715117  -0.106   9.185  -0.254
  270DIO    H1815118  -0.096   9.181  -0.001
  270DIO    H1915119   0.034   9.301  -0.007
  270DIO    H2015120  -0.126   9.341  -0.069
  271DIO     F115121   1.507   3.432   2.632
  271DIO     C115122   1.429   3.337   2.576
  271DIO     C215123   1.285   3.346   2.591
  271DIO     C315124   1.196   3.242   2.534
  271DIO     C415125   1.262   3.132   2.459
  271DIO     C515126   1.406   3.126   2.446
  271DIO     F215127   1.461   3.026   2.374
  271DIO     C615128   1.490   3.228   2.504
  271DIO     F315129   1.623   3.221   2.492
  271DIO     C715130   1.050   3.248   2.549
  271DIO     C815131   0.973   3.131   2.597
  271DIO     C915132   0.828   3.137   2.611
  271DIO    C1015133   0.755   3.255   2.568
  271DIO    C1115134   0.828   3.374   2.527
  271DIO    C1215135   0.972   3.369   2.516
  271DIO     F415136   1.037   3.479   2.472
  271DIO     O115137   0.623   3.263   2.607
  271DIO    C1315138   0.529   3.324   2.525
  271DIO     O215139   0.528   3.353   2.402
  271DIO    C1415140   0.399   3.343   2.592
  271DIO    C1515141   0.333   3.233   2.666
  271DIO     F515142   0.396   3.114   2.681
  271DIO    C1615143   0.202   3.247   2.727
  271DIO    C1715144   0.127   3.371   2.711
  271DIO    C1815145   0.195   3.486   2.654
  271DIO    C1915146   0.327   3.472   2.594
  271DIO     F615147   0.389   3.585   2.556
  271DIO    C2015148  -0.014   3.384   2.764
  271DIO     O315149  -0.084   3.259   2.774
  271DIO    C2115150  -0.128   3.211   2.648
  271DIO    C2215151  -0.216   3.313   2.578
  271DIO    C2315152  -0.136   3.442   2.568
  271DIO     O415153  -0.091   3.484   2.697
  271DIO    C2415154  -0.349   3.339   2.652
  271DIO    C2515155  -0.440   3.217   2.672
  271DIO    C2615156  -0.478   3.147   2.542
  271DIO     H115157   1.242   3.429   2.645
  271DIO     H215158   1.201   3.059   2.407
  271DIO     H315159   1.024   3.041   2.628
  271DIO     H415160   0.773   3.055   2.655
  271DIO     H515161   0.773   3.463   2.501
  271DIO     H615162   0.164   3.166   2.787
  271DIO     H715163   0.152   3.585   2.659
  271DIO     H815164  -0.004   3.419   2.868
  271DIO     H915165  -0.041   3.186   2.585
  271DIO    H1015166  -0.180   3.116   2.664
  271DIO    H1115167  -0.239   3.278   2.476
  271DIO    H1215168  -0.197   3.523   2.526
  271DIO    H1315169  -0.050   3.430   2.501
  271DIO    H1415170  -0.329   3.382   2.751
  271DIO    H1515171  -0.406   3.415   2.596
  271DIO    H1615172  -0.393   3.145   2.739
  271DIO    H1715173  -0.532   3.250   2.722
  271DIO    H1815174  -0.522   3.218   2.471
  271DIO    H1915175  -0.392   3.100   2.495
  271DIO    H2015176  -0.552   3.069   2.562
  272DIO     F115177   6.941   7.317   3.900
  272DIO     C115178   6.864   7.211   3.872
  272DIO     C215179   6.720   7.223   3.884
  272DIO     C315180   6.631   7.108   3.856
  272DIO     C415181   6.696   6.982   3.813
  272DIO     C515182   6.841   6.972   3.802
  272DIO     F215183   6.896   6.857   3.759
  272DIO     C615184   6.924   7.086   3.830
  272DIO     F315185   7.058   7.076   3.820
  272DIO     C715186   6.484   7.117   3.869
  272DIO     C815187   6.407   7.018   3.946
  272DIO     C915188   6.263   7.027   3.958
  272DIO    C1015189   6.190   7.129   3.885
  272DIO    C1115190   6.262   7.233   3.815
  272DIO    C1215191   6.407   7.225   3.805
  272DIO     F415192   6.471   7.320   3.734
  272DIO     O115193   6.058   7.147   3.920
  272DIO    C1315194   5.963   7.184   3.825
  272DIO     O215195   5.962   7.180   3.699
  272DIO    C1415196   5.834   7.220   3.885
  272DIO    C1515197   5.768   7.134   3.985
  272DIO     F515198   5.830   7.023   4.031
  272DIO    C1615199   5.637   7.164   4.040
  272DIO    C1715200   5.561   7.279   3.993
  272DIO    C1815201   5.630   7.375   3.907
  272DIO    C1915202   5.762   7.345   3.853
  272DIO     F615203   5.824   7.444   3.786
  272DIO    C2015204   5.421   7.305   4.041
  272DIO     O315205   5.351   7.188   4.083
  272DIO    C2115206   5.307   7.108   3.974
  272DIO    C2215207   5.218   7.188   3.879
  272DIO    C2315208   5.299   7.310   3.836
  272DIO     O415209   5.343   7.384   3.949
  272DIO    C2415210   5.085   7.233   3.944
  272DIO    C2515211   4.995   7.120   3.995
  272DIO    C2615212   4.956   7.019   3.889
  272DIO     H115213   6.677   7.318   3.914
  272DIO     H215214   6.636   6.897   3.782
  272DIO     H315215   6.459   6.939   3.999
  272DIO     H415216   6.207   6.959   4.022
  272DIO     H515217   6.208   7.313   3.765
  272DIO     H615218   5.599   7.101   4.120
  272DIO     H715219   5.587   7.472   3.886
  272DIO     H815220   5.430   7.367   4.131
  272DIO     H915221   5.394   7.067   3.920
  272DIO    H1015222   5.254   7.021   4.015
  272DIO    H1115223   5.196   7.127   3.790
  272DIO    H1215224   5.238   7.377   3.774
  272DIO    H1315225   5.385   7.280   3.775
  272DIO    H1415226   5.105   7.300   4.028
  272DIO    H1515227   5.029   7.291   3.870
  272DIO    H1615228   5.042   7.068   4.079
  272DIO    H1715229   4.903   7.165   4.035
  272DIO    H1815230   4.912   7.068   3.801
  272DIO    H1915231   5.043   6.960   3.856
  272DIO    H2015232   4.883   6.948   3.929
  273DIO     F115233   5.935   6.875  -0.168
  273DIO     C115234   5.857   6.982  -0.191
  273DIO     C215235   5.713   6.966  -0.196
  273DIO     C315236   5.624   7.082  -0.223
  273DIO     C415237   5.690   7.213  -0.242
  273DIO     C515238   5.834   7.227  -0.236
  273DIO     F215239   5.889   7.349  -0.249
  273DIO     C615240   5.918   7.112  -0.210
  273DIO     F315241   6.051   7.126  -0.206
  273DIO     C715242   5.478   7.067  -0.230
  273DIO     C815243   5.401   7.121  -0.344
  273DIO     C915244   5.256   7.107  -0.351
  273DIO    C1015245   5.183   7.049  -0.240
  273DIO    C1115246   5.256   6.988  -0.130
  273DIO    C1215247   5.400   7.000  -0.124
  273DIO     F415248   5.465   6.947  -0.018
  273DIO     O115249   5.051   7.017  -0.263
  273DIO    C1315250   4.957   7.027  -0.161
  273DIO     O215251   4.956   7.088  -0.051
  273DIO    C1415252   4.827   6.968  -0.198
  273DIO    C1515253   4.761   7.000  -0.327
  273DIO     F515254   4.824   7.077  -0.418
  273DIO    C1615255   4.630   6.948  -0.362
  273DIO    C1715256   4.555   6.867  -0.268
  273DIO    C1815257   4.623   6.820  -0.148
  273DIO    C1915258   4.755   6.871  -0.113
  273DIO     F615259   4.817   6.813  -0.009
  273DIO    C2015260   4.414   6.822  -0.298
  273DIO     O315261   4.344   6.908  -0.389
  273DIO    C2115262   4.300   7.028  -0.328
  273DIO    C2215263   4.212   7.000  -0.208
  273DIO    C2315264   4.292   6.910  -0.114
  273DIO     O415265   4.337   6.793  -0.181
  273DIO    C2415266   4.079   6.930  -0.245
  273DIO    C2515267   3.988   7.008  -0.342
  273DIO    C2615268   3.950   7.146  -0.293
  273DIO     H115269   5.670   6.868  -0.180
  273DIO     H215270   5.629   7.303  -0.252
  273DIO     H315271   5.452   7.167  -0.427
  273DIO     H415272   5.201   7.139  -0.438
  273DIO     H515273   5.201   6.940  -0.050
  273DIO     H615274   4.592   6.968  -0.462
  273DIO     H715275   4.580   6.743  -0.086
  273DIO     H815276   4.424   6.726  -0.351
  273DIO     H915277   4.387   7.088  -0.299
  273DIO    H1015278   4.248   7.087  -0.404
  273DIO    H1115279   4.189   7.093  -0.156
  273DIO    H1215280   4.231   6.878  -0.029
  273DIO    H1315281   4.378   6.964  -0.073
  273DIO    H1415282   4.099   6.832  -0.290
  273DIO    H1515283   4.022   6.911  -0.153
  273DIO    H1615284   4.035   7.016  -0.440
  273DIO    H1715285   3.896   6.949  -0.357
  273DIO    H1815286   3.906   7.142  -0.192
  273DIO    H1915287   4.036   7.213  -0.290
  273DIO    H2015288   3.876   7.191  -0.360
  274DIO     F115289   9.322   0.958   3.033
  274DIO     C115290   9.245   0.867   3.095
  274DIO     C215291   9.101   0.884   3.094
  274DIO     C315292   9.012   0.788   3.163
  274DIO     C415293   9.077   0.674   3.231
  274DIO     C515294   9.222   0.660   3.231
  274DIO     F215295   9.277   0.552   3.291
  274DIO     C615296   9.305   0.755   3.163
  274DIO     F315297   9.439   0.741   3.164
  274DIO     C715298   8.865   0.804   3.164
  274DIO     C815299   8.788   0.799   3.291
  274DIO     C915300   8.644   0.814   3.291
  274DIO    C1015301   8.571   0.825   3.166
  274DIO    C1115302   8.644   0.839   3.041
  274DIO    C1215303   8.788   0.826   3.041
  274DIO     F415304   8.853   0.834   2.923
  274DIO     O115305   8.439   0.863   3.176
  274DIO    C1315306   8.344   0.815   3.085
  274DIO     O215307   8.343   0.716   3.007
  274DIO    C1415308   8.215   0.884   3.097
  274DIO    C1515309   8.149   0.904   3.228
  274DIO     F515310   8.212   0.867   3.342
  274DIO    C1615311   8.018   0.965   3.241
  274DIO    C1715312   7.942   1.004   3.122
  274DIO    C1815313   8.011   1.001   2.993
  274DIO    C1915314   8.143   0.940   2.981
  274DIO     F615315   8.205   0.954   2.862
  274DIO    C2015316   7.802   1.058   3.133
  274DIO     O315317   7.732   1.013   3.250
  274DIO    C2115318   7.688   0.878   3.240
  274DIO    C2215319   7.599   0.858   3.118
  274DIO    C2315320   7.680   0.905   2.997
  274DIO     O415321   7.724   1.039   3.014
  274DIO    C2415322   7.467   0.937   3.126
  274DIO    C2515323   7.376   0.903   3.245
  274DIO    C2615324   7.337   0.756   3.252
  274DIO     H115325   9.058   0.969   3.041
  274DIO     H215326   9.017   0.596   3.275
  274DIO     H315327   8.840   0.788   3.385
  274DIO     H415328   8.589   0.818   3.384
  274DIO     H515329   8.589   0.853   2.949
  274DIO     H615330   7.980   0.985   3.340
  274DIO     H715331   7.968   1.048   2.906
  274DIO     H815332   7.811   1.166   3.145
  274DIO     H915333   7.775   0.811   3.236
  274DIO    H1015334   7.635   0.853   3.332
  274DIO    H1115335   7.577   0.752   3.106
  274DIO    H1215336   7.619   0.901   2.906
  274DIO    H1315337   7.766   0.839   2.979
  274DIO    H1415338   7.486   1.045   3.129
  274DIO    H1515339   7.410   0.919   3.033
  274DIO    H1615340   7.423   0.933   3.339
  274DIO    H1715341   7.284   0.962   3.236
  274DIO    H1815342   7.294   0.721   3.158
  274DIO    H1915343   7.424   0.693   3.275
  274DIO    H2015344   7.264   0.741   3.332
  275DIO     F115345  10.084   9.234   5.755
  275DIO     C115346  10.006   9.231   5.865
  275DIO     C215347   9.862   9.240   5.851
  275DIO     C315348   9.773   9.240   5.969
  275DIO     C415349   9.839   9.227   6.101
  275DIO     C515350   9.983   9.218   6.113
  275DIO     F215351  10.039   9.203   6.235
  275DIO     C615352  10.067   9.220   5.995
  275DIO     F315353  10.201   9.213   6.008
  275DIO     C715354   9.627   9.250   5.957
  275DIO     C815355   9.550   9.348   6.036
  275DIO     C915356   9.405   9.358   6.024
  275DIO    C1015357   9.333   9.264   5.941
  275DIO    C1115358   9.405   9.171   5.856
  275DIO    C1215359   9.549   9.163   5.866
  275DIO     F415360   9.614   9.072   5.790
  275DIO     O115361   9.200   9.294   5.916
  275DIO    C1315362   9.106   9.192   5.902
  275DIO     O215363   9.105   9.071   5.935
  275DIO    C1415364   8.977   9.242   5.853
  275DIO    C1515365   8.911   9.360   5.914
  275DIO     F515366   8.973   9.430   6.011
  275DIO    C1615367   8.780   9.406   5.872
  275DIO    C1715368   8.704   9.333   5.771
  275DIO    C1815369   8.773   9.228   5.697
  275DIO    C1915370   8.904   9.182   5.739
  275DIO     F615371   8.967   9.095   5.657
  275DIO    C2015372   8.563   9.374   5.734
  275DIO     O315373   8.494   9.442   5.839
  275DIO    C2115374   8.450   9.354   5.942
  275DIO    C2215375   8.361   9.244   5.886
  275DIO    C2315376   8.442   9.174   5.777
  275DIO     O415377   8.486   9.267   5.678
  275DIO    C2415378   8.228   9.297   5.827
  275DIO    C2515379   8.138   9.373   5.925
  275DIO    C2615380   8.099   9.292   6.048
  275DIO     H115381   9.820   9.248   5.751
  275DIO     H215382   9.778   9.216   6.191
  275DIO     H315383   9.601   9.418   6.100
  275DIO     H415384   9.350   9.435   6.076
  275DIO     H515385   9.351   9.104   5.790
  275DIO     H615386   8.742   9.498   5.915
  275DIO     H715387   8.730   9.186   5.607
  275DIO     H815388   8.573   9.448   5.653
  275DIO     H915389   8.537   9.312   5.993
  275DIO    H1015390   8.397   9.414   6.017
  275DIO    H1115391   8.338   9.172   5.965
  275DIO    H1215392   8.381   9.099   5.726
  275DIO    H1315393   8.528   9.121   5.819
  275DIO    H1415394   8.248   9.363   5.742
  275DIO    H1515395   8.172   9.212   5.787
  275DIO    H1615396   8.185   9.466   5.956
  275DIO    H1715397   8.046   9.401   5.872
  275DIO    H1815398   8.055   9.196   6.020
  275DIO    H1915399   8.186   9.274   6.112
  275DIO    H2015400   8.025   9.347   6.107
  276DIO     F115401   4.944   8.094   9.251
  276DIO     C115402   4.866   8.027   9.164
  276DIO     C215403   4.722   8.029   9.181
  276DIO     C315404   4.633   7.955   9.089
  276DIO     C415405   4.699   7.881   8.978
  276DIO     C515406   4.843   7.881   8.963
  276DIO     F215407   4.898   7.816   8.859
  276DIO     C615408   4.927   7.954   9.055
  276DIO     F315409   5.060   7.952   9.041
  276DIO     C715410   4.487   7.955   9.105
  276DIO     C815411   4.410   7.829   9.105
  276DIO     C915412   4.265   7.828   9.120
  276DIO    C1015413   4.192   7.954   9.125
  276DIO    C1115414   4.265   8.080   9.133
  276DIO    C1215415   4.409   8.079   9.120
  276DIO     F415416   4.474   8.198   9.121
  276DIO     O115417   4.060   7.947   9.164
  276DIO    C1315418   3.966   8.034   9.111
  276DIO     O215419   3.965   8.108   9.009
  276DIO    C1415420   3.837   8.026   9.180
  276DIO    C1515421   3.770   7.897   9.207
  276DIO     F515422   3.833   7.781   9.176
  276DIO    C1615423   3.639   7.887   9.269
  276DIO    C1715424   3.564   8.007   9.301
  276DIO    C1815425   3.632   8.136   9.292
  276DIO    C1915426   3.764   8.145   9.231
  276DIO     F615427   3.827   8.264   9.239
  276DIO    C2015428   3.423   7.999   9.356
  276DIO     O315429   3.353   7.880   9.317
  276DIO    C2115430   3.310   7.883   9.182
  276DIO    C2215431   3.221   8.004   9.156
  276DIO    C2315432   3.301   8.128   9.196
  276DIO     O415433   3.346   8.117   9.331
  276DIO    C2415434   3.088   8.000   9.235
  276DIO    C2515435   2.997   7.880   9.207
  276DIO    C2615436   2.959   7.864   9.060
  276DIO     H115437   4.679   8.086   9.263
  276DIO     H215438   4.638   7.833   8.902
  276DIO     H315439   4.461   7.734   9.099
  276DIO     H415440   4.210   7.736   9.129
  276DIO     H515441   4.210   8.173   9.142
  276DIO     H615442   3.601   7.789   9.294
  276DIO     H715443   3.590   8.225   9.335
  276DIO     H815444   3.433   7.993   9.465
  276DIO     H915445   3.396   7.884   9.115
  276DIO    H1015446   3.257   7.789   9.162
  276DIO    H1115447   3.198   8.010   9.049
  276DIO    H1215448   3.240   8.218   9.188
  276DIO    H1315449   3.388   8.141   9.130
  276DIO    H1415450   3.108   8.003   9.343
  276DIO    H1515451   3.031   8.091   9.212
  276DIO    H1615452   3.045   7.787   9.242
  276DIO    H1715453   2.905   7.891   9.266
  276DIO    H1815454   2.915   7.957   9.021
  276DIO    H1915455   3.045   7.838   8.999
  276DIO    H2015456   2.885   7.784   9.049
  277DIO     F115457   7.281   1.030   7.196
  277DIO     C115458   7.204   1.116   7.127
  277DIO     C215459   7.059   1.099   7.130
  277DIO     C315460   6.971   1.190   7.054
  277DIO     C415461   7.036   1.300   6.978
  277DIO     C515462   7.180   1.314   6.978
  277DIO     F215463   7.236   1.418   6.911
  277DIO     C615464   7.264   1.223   7.052
  277DIO     F315465   7.398   1.237   7.050
  277DIO     C715466   6.824   1.174   7.054
  277DIO     C815467   6.747   1.172   6.928
  277DIO     C915468   6.602   1.156   6.928
  277DIO    C1015469   6.530   1.154   7.054
  277DIO    C1115470   6.602   1.149   7.179
  277DIO    C1215471   6.746   1.161   7.179
  277DIO     F415472   6.811   1.162   7.297
  277DIO     O115473   6.398   1.115   7.047
  277DIO    C1315474   6.303   1.169   7.134
  277DIO     O215475   6.302   1.273   7.205
  277DIO    C1415476   6.174   1.100   7.127
  277DIO    C1515477   6.108   1.071   6.998
  277DIO     F515478   6.170   1.100   6.882
  277DIO    C1615479   5.977   1.009   6.989
  277DIO    C1715480   5.901   0.978   7.110
  277DIO    C1815481   5.970   0.990   7.238
  277DIO    C1915482   6.102   1.051   7.246
  277DIO     F615483   6.164   1.046   7.366
  277DIO    C2015484   5.760   0.924   7.103
  277DIO     O315485   5.691   0.960   6.983
  277DIO    C2115486   5.647   1.096   6.984
  277DIO    C2215487   5.558   1.124   7.104
  277DIO    C2315488   5.639   1.086   7.228
  277DIO     O415489   5.683   0.950   7.220
  277DIO    C2415490   5.425   1.045   7.102
  277DIO    C2515491   5.335   1.071   6.981
  277DIO    C2615492   5.296   1.217   6.963
  277DIO     H115493   7.017   1.019   7.188
  277DIO     H215494   6.976   1.375   6.929
  277DIO     H315495   6.799   1.176   6.833
  277DIO     H415496   6.547   1.146   6.836
  277DIO     H515497   6.548   1.141   7.273
  277DIO     H615498   5.939   0.982   6.891
  277DIO     H715499   5.927   0.949   7.328
  277DIO     H815500   5.770   0.815   7.098
  277DIO     H915501   5.734   1.163   6.983
  277DIO    H1015502   5.594   1.114   6.890
  277DIO    H1115503   5.536   1.231   7.109
  277DIO    H1215504   5.578   1.095   7.319
  277DIO    H1315505   5.725   1.152   7.241
  277DIO    H1415506   5.445   0.937   7.106
  277DIO    H1515507   5.369   1.069   7.192
  277DIO    H1615508   5.382   1.034   6.889
  277DIO    H1715509   5.243   1.012   6.993
  277DIO    H1815510   5.252   1.258   7.055
  277DIO    H1915511   5.383   1.278   6.936
  277DIO    H2015512   5.223   1.227   6.883
  278DIO     F115513   9.098  10.053   5.034
  278DIO     C115514   9.021  10.014   4.931
  278DIO     C215515   8.877  10.011   4.947
  278DIO     C315516   8.788   9.967   4.838
  278DIO     C415517   8.853   9.929   4.710
  278DIO     C515518   8.998   9.932   4.696
  278DIO     F215519   9.053   9.901   4.577
  278DIO     C615520   9.081   9.975   4.805
  278DIO     F315521   9.215   9.977   4.791
  278DIO     C715522   8.641   9.962   4.853
  278DIO     C815523   8.564   9.841   4.817
  278DIO     C915524   8.420   9.837   4.831
  278DIO    C1015525   8.347   9.955   4.872
  278DIO    C1115526   8.420  10.074   4.916
  278DIO    C1215527   8.564  10.077   4.904
  278DIO     F415528   8.629  10.190   4.939
  278DIO     O115529   8.215   9.937   4.907
  278DIO    C1315530   8.120  10.036   4.882
  278DIO     O215531   8.119  10.136   4.805
  278DIO    C1415532   7.991  10.009   4.946
  278DIO    C1515533   7.925   9.877   4.934
  278DIO     F515534   7.988   9.775   4.871
  278DIO    C1615535   7.794   9.850   4.991
  278DIO    C1715536   7.718   9.955   5.056
  278DIO    C1815537   7.787  10.081   5.084
  278DIO    C1915538   7.919  10.107   5.029
  278DIO     F615539   7.981  10.219   5.071
  278DIO    C2015540   7.578   9.932   5.106
  278DIO     O315541   7.508   9.829   5.035
  278DIO    C2115542   7.464   9.871   4.906
  278DIO    C2215543   7.375   9.995   4.916
  278DIO    C2315544   7.456  10.101   4.991
  278DIO     O415545   7.500  10.052   5.117
  278DIO    C2415546   7.243   9.968   4.991
  278DIO    C2515547   7.152   9.861   4.929
  278DIO    C2615548   7.113   9.889   4.784
  278DIO     H115549   8.834  10.042   5.042
  278DIO     H215550   8.793   9.905   4.623
  278DIO     H315551   8.616   9.752   4.784
  278DIO     H415552   8.365   9.746   4.813
  278DIO     H515553   8.365  10.160   4.952
  278DIO     H615554   7.756   9.748   4.986
  278DIO     H715555   7.744  10.154   5.152
  278DIO     H815556   7.587   9.894   5.209
  278DIO     H915557   7.551   9.891   4.842
  278DIO    H1015558   7.411   9.787   4.859
  278DIO    H1115559   7.353  10.032   4.816
  278DIO    H1215560   7.395  10.190   5.009
  278DIO    H1315561   7.542  10.133   4.931
  278DIO    H1415562   7.262   9.939   5.095
  278DIO    H1515563   7.186  10.062   4.995
  278DIO    H1615564   7.199   9.762   4.936
  278DIO    H1715565   7.060   9.855   4.989
  278DIO    H1815566   7.070   9.988   4.774
  278DIO    H1915567   7.200   9.881   4.718
  278DIO    H2015568   7.040   9.815   4.750
  279DIO     F115569   8.742   2.835   2.099
  279DIO     C115570   8.664   2.911   2.179
  279DIO     C215571   8.520   2.907   2.162
  279DIO     C315572   8.431   2.990   2.246
  279DIO     C415573   8.497   3.075   2.349
  279DIO     C515574   8.641   3.077   2.363
  279DIO     F215575   8.696   3.152   2.460
  279DIO     C615576   8.725   2.995   2.279
  279DIO     F315577   8.858   2.999   2.293
  279DIO     C715578   8.285   2.989   2.230
  279DIO     C815579   8.208   3.114   2.217
  279DIO     C915580   8.063   3.113   2.201
  279DIO    C1015581   7.990   2.987   2.210
  279DIO    C1115582   8.063   2.862   2.215
  279DIO    C1215583   8.207   2.863   2.228
  279DIO     F415584   8.272   2.745   2.238
  279DIO     O115585   7.858   2.991   2.171
  279DIO    C1315586   7.764   2.909   2.232
  279DIO     O215587   7.763   2.847   2.341
  279DIO    C1415588   7.635   2.910   2.162
  279DIO    C1515589   7.568   3.036   2.122
  279DIO     F515590   7.631   3.154   2.141
  279DIO    C1615591   7.437   3.039   2.060
  279DIO    C1715592   7.362   2.916   2.040
  279DIO    C1815593   7.430   2.790   2.063
  279DIO    C1915594   7.562   2.787   2.124
  279DIO     F615595   7.625   2.667   2.129
  279DIO    C2015596   7.221   2.919   1.985
  279DIO     O315597   7.151   3.041   2.011
  279DIO    C2115598   7.108   3.052   2.146
  279DIO    C2215599   7.019   2.934   2.184
  279DIO    C2315600   7.099   2.807   2.157
  279DIO     O415601   7.144   2.804   2.021
  279DIO    C2415602   6.886   2.930   2.105
  279DIO    C2515603   6.795   3.053   2.121
  279DIO    C2615604   6.757   3.083   2.265
  279DIO     H115605   8.477   2.842   2.087
  279DIO     H215606   8.436   3.131   2.419
  279DIO     H315607   8.259   3.209   2.213
  279DIO     H415608   8.008   3.204   2.183
  279DIO     H515609   8.008   2.768   2.216
  279DIO     H615610   7.399   3.135   2.025
  279DIO     H715611   7.388   2.696   2.029
  279DIO     H815612   7.231   2.914   1.876
  279DIO     H915613   7.194   3.058   2.212
  279DIO    H1015614   7.055   3.147   2.156
  279DIO    H1115615   6.996   2.939   2.291
  279DIO    H1215616   7.038   2.718   2.174
  279DIO    H1315617   7.186   2.801   2.224
  279DIO    H1415618   6.906   2.916   1.998
  279DIO    H1515619   6.829   2.842   2.137
  279DIO    H1615620   6.843   3.141   2.076
  279DIO    H1715621   6.703   3.035   2.063
  279DIO    H1815622   6.713   2.995   2.313
  279DIO    H1915623   6.843   3.116   2.323
  279DIO    H2015624   6.683   3.164   2.268
  280DIO     F115625   6.490   4.438   1.496
  280DIO     C115626   6.412   4.543   1.529
  280DIO     C215627   6.268   4.532   1.516
  280DIO     C315628   6.179   4.645   1.550
  280DIO     C415629   6.245   4.769   1.598
  280DIO     C515630   6.389   4.778   1.610
  280DIO     F215631   6.444   4.890   1.659
  280DIO     C615632   6.473   4.665   1.576
  280DIO     F315633   6.606   4.675   1.586
  280DIO     C715634   6.033   4.636   1.536
  280DIO     C815635   5.956   4.739   1.464
  280DIO     C915636   5.811   4.731   1.451
  280DIO    C1015637   5.738   4.625   1.519
  280DIO    C1115638   5.811   4.518   1.585
  280DIO    C1215639   5.955   4.525   1.595
  280DIO     F415640   6.020   4.427   1.661
  280DIO     O115641   5.606   4.609   1.483
  280DIO    C1315642   5.512   4.567   1.576
  280DIO     O215643   5.511   4.566   1.702
  280DIO    C1415644   5.382   4.534   1.515
  280DIO    C1515645   5.316   4.625   1.419
  280DIO     F515646   5.379   4.738   1.378
  280DIO    C1615647   5.185   4.598   1.363
  280DIO    C1715648   5.110   4.481   1.405
  280DIO    C1815649   5.178   4.381   1.486
  280DIO    C1915650   5.310   4.408   1.541
  280DIO     F615651   5.372   4.305   1.603
  280DIO    C2015652   4.969   4.456   1.356
  280DIO     O315653   4.899   4.576   1.319
  280DIO    C2115654   4.855   4.651   1.432
  280DIO    C2215655   4.767   4.566   1.522
  280DIO    C2315656   4.847   4.442   1.560
  280DIO     O415657   4.892   4.373   1.443
  280DIO    C2415658   4.634   4.525   1.455
  280DIO    C2515659   4.543   4.639   1.410
  280DIO    C2615660   4.505   4.736   1.521
  280DIO     H115661   6.225   4.438   1.482
  280DIO     H215662   6.184   4.852   1.633
  280DIO     H315663   6.007   4.821   1.414
  280DIO     H415664   5.756   4.802   1.391
  280DIO     H515665   5.756   4.436   1.630
  280DIO     H615666   5.147   4.664   1.286
  280DIO     H715667   5.135   4.283   1.502
  280DIO     H815668   4.979   4.399   1.263
  280DIO     H915669   4.942   4.688   1.487
  280DIO    H1015670   4.803   4.739   1.395
  280DIO    H1115671   4.744   4.622   1.614
  280DIO    H1215672   4.786   4.372   1.618
  280DIO    H1315673   4.933   4.469   1.622
  280DIO    H1415674   4.654   4.461   1.368
  280DIO    H1515675   4.577   4.463   1.526
  280DIO    H1615676   4.590   4.695   1.328
  280DIO    H1715677   4.451   4.596   1.368
  280DIO    H1815678   4.461   4.682   1.606
  280DIO    H1915679   4.591   4.792   1.557
  280DIO    H2015680   4.431   4.808   1.484
  281DIO     F115681   1.867   1.606   5.017
  281DIO     C115682   1.789   1.512   4.959
  281DIO     C215683   1.645   1.520   4.974
  281DIO     C315684   1.556   1.418   4.914
  281DIO     C415685   1.622   1.310   4.837
  281DIO     C515686   1.766   1.304   4.824
  281DIO     F215687   1.821   1.207   4.749
  281DIO     C615688   1.850   1.405   4.884
  281DIO     F315689   1.984   1.398   4.871
  281DIO     C715690   1.410   1.424   4.929
  281DIO     C815691   1.333   1.306   4.975
  281DIO     C915692   1.188   1.311   4.989
  281DIO    C1015693   1.115   1.430   4.949
  281DIO    C1115694   1.188   1.550   4.911
  281DIO    C1215695   1.332   1.546   4.899
  281DIO     F415696   1.397   1.657   4.859
  281DIO     O115697   0.983   1.437   4.988
  281DIO    C1315698   0.889   1.500   4.907
  281DIO     O215699   0.888   1.533   4.785
  281DIO    C1415700   0.760   1.517   4.975
  281DIO    C1515701   0.693   1.406   5.046
  281DIO     F515702   0.756   1.287   5.058
  281DIO    C1615703   0.563   1.419   5.107
  281DIO    C1715704   0.487   1.543   5.095
  281DIO    C1815705   0.556   1.659   5.040
  281DIO    C1915706   0.687   1.646   4.980
  281DIO     F615707   0.750   1.761   4.945
  281DIO    C2015708   0.346   1.554   5.148
  281DIO     O315709   0.276   1.429   5.155
  281DIO    C2115710   0.233   1.384   5.027
  281DIO    C2215711   0.144   1.488   4.960
  281DIO    C2315712   0.225   1.618   4.954
  281DIO     O415713   0.269   1.656   5.084
  281DIO    C2415714   0.011   1.512   5.035
  281DIO    C2515715  -0.080   1.390   5.051
  281DIO    C2615716  -0.118   1.324   4.920
  281DIO     H115717   1.602   1.603   5.030
  281DIO     H215718   1.561   1.238   4.783
  281DIO     H315719   1.384   1.215   5.003
  281DIO     H415720   1.133   1.228   5.030
  281DIO     H515721   1.134   1.641   4.887
  281DIO     H615722   0.524   1.336   5.165
  281DIO     H715723   0.513   1.758   5.049
  281DIO     H815724   0.356   1.587   5.253
  281DIO     H915725   0.319   1.361   4.964
  281DIO    H1015726   0.180   1.289   5.041
  281DIO    H1115727   0.121   1.456   4.858
  281DIO    H1215728   0.163   1.699   4.914
  281DIO    H1315729   0.311   1.607   4.887
  281DIO    H1415730   0.031   1.553   5.135
  281DIO    H1515731  -0.045   1.590   4.981
  281DIO    H1615732  -0.032   1.316   5.117
  281DIO    H1715733  -0.171   1.422   5.103
  281DIO    H1815734  -0.162   1.396   4.851
  281DIO    H1915735  -0.032   1.277   4.872
  281DIO    H2015736  -0.192   1.245   4.938
  282DIO     F115737   9.947  -0.000   1.900
  282DIO     C115738   9.870   0.018   1.792
  282DIO     C215739   9.726   0.007   1.805
  282DIO     C315740   9.637   0.024   1.688
  282DIO     C415741   9.702   0.055   1.558
  282DIO     C515742   9.847   0.065   1.548
  282DIO     F215743   9.902   0.098   1.430
  282DIO     C615744   9.930   0.048   1.664
  282DIO     F315745  10.064   0.056   1.653
  282DIO     C715746   9.491   0.013   1.699
  282DIO     C815747   9.413  -0.074   1.606
  282DIO     C915748   9.269  -0.085   1.617
  282DIO    C1015749   9.196  -0.003   1.712
  282DIO    C1115750   9.269   0.077   1.809
  282DIO    C1215751   9.413   0.086   1.800
  282DIO     F415752   9.478   0.165   1.888
  282DIO     O115753   9.064  -0.036   1.733
  282DIO    C1315754   8.969   0.062   1.761
  282DIO     O215755   8.969   0.187   1.745
  282DIO    C1415756   8.840   0.006   1.802
  282DIO    C1515757   8.774  -0.102   1.726
  282DIO     F515758   8.837  -0.158   1.620
  282DIO    C1615759   8.643  -0.154   1.761
  282DIO    C1715760   8.567  -0.096   1.871
  282DIO    C1815761   8.636  -0.002   1.958
  282DIO    C1915762   8.768   0.049   1.924
  282DIO     F615763   8.830   0.125   2.017
  282DIO    C2015764   8.427  -0.141   1.902
  282DIO     O315765   8.357  -0.194   1.789
  282DIO    C2115766   8.313  -0.093   1.699
  282DIO    C2215767   8.224   0.008   1.770
  282DIO    C2315768   8.305   0.063   1.887
  282DIO     O415769   8.349  -0.043   1.972
  282DIO    C2415770   8.092  -0.052   1.820
  282DIO    C2515771   8.001  -0.113   1.713
  282DIO    C2615772   7.963  -0.017   1.602
  282DIO     H115773   9.683  -0.014   1.902
  282DIO     H215774   9.642   0.078   1.471
  282DIO     H315775   9.465  -0.134   1.533
  282DIO     H415776   9.214  -0.155   1.555
  282DIO     H515777   9.214   0.134   1.883
  282DIO     H615778   8.605  -0.239   1.706
  282DIO     H715779   8.593   0.028   2.053
  282DIO     H815780   8.436  -0.225   1.972
  282DIO     H915781   8.400  -0.044   1.654
  282DIO    H1015782   8.261  -0.142   1.616
  282DIO    H1115783   8.202   0.091   1.701
  282DIO    H1215784   8.244   0.130   1.948
  282DIO    H1315785   8.391   0.121   1.852
  282DIO    H1415786   8.112  -0.129   1.896
  282DIO    H1515787   8.035   0.027   1.872
  282DIO    H1615788   8.048  -0.202   1.669
  282DIO    H1715789   7.909  -0.149   1.762
  282DIO    H1815790   7.919   0.075   1.643
  282DIO    H1915791   8.049   0.011   1.541
  282DIO    H2015792   7.889  -0.063   1.536
  283DIO     F115793   5.648  10.592   7.467
  283DIO     C115794   5.571  10.688   7.522
  283DIO     C215795   5.427  10.679   7.507
  283DIO     C315796   5.338  10.783   7.564
  283DIO     C415797   5.403  10.894   7.638
  283DIO     C515798   5.548  10.900   7.651
  283DIO     F215799   5.603  11.000   7.722
  283DIO     C615800   5.631  10.797   7.594
  283DIO     F315801   5.765  10.804   7.606
  283DIO     C715802   5.192  10.777   7.549
  283DIO     C815803   5.114  10.894   7.500
  283DIO     C915804   4.970  10.888   7.486
  283DIO    C1015805   4.897  10.770   7.529
  283DIO    C1115806   4.970  10.651   7.571
  283DIO    C1215807   5.114  10.656   7.582
  283DIO     F415808   5.179  10.546   7.626
  283DIO     O115809   4.765  10.762   7.491
  283DIO    C1315810   4.670  10.701   7.573
  283DIO     O215811   4.670  10.673   7.696
  283DIO    C1415812   4.541  10.682   7.506
  283DIO    C1515813   4.475  10.792   7.432
  283DIO     F515814   4.538  10.910   7.416
  283DIO    C1615815   4.344  10.777   7.371
  283DIO    C1715816   4.268  10.653   7.387
  283DIO    C1815817   4.337  10.539   7.445
  283DIO    C1915818   4.469  10.553   7.505
  283DIO     F615819   4.531  10.440   7.543
  283DIO    C2015820   4.128  10.640   7.334
  283DIO     O315821   4.058  10.765   7.324
  283DIO    C2115822   4.014  10.814   7.450
  283DIO    C2215823   3.925  10.712   7.520
  283DIO    C2315824   4.006  10.583   7.530
  283DIO     O415825   4.050  10.540   7.402
  283DIO    C2415826   3.793  10.686   7.446
  283DIO    C2515827   3.702  10.807   7.426
  283DIO    C2615828   3.664  10.878   7.555
  283DIO     H115829   5.384  10.595   7.453
  283DIO     H215830   5.343  10.967   7.690
  283DIO     H315831   5.166  10.984   7.469
  283DIO     H415832   4.915  10.970   7.442
  283DIO     H515833   4.915  10.562   7.598
  283DIO     H615834   4.306  10.858   7.310
  283DIO     H715835   4.294  10.439   7.440
  283DIO     H815836   4.137  10.604   7.231
  283DIO     H915837   4.101  10.839   7.512
  283DIO    H1015838   3.962  10.908   7.433
  283DIO    H1115839   3.903  10.747   7.622
  283DIO    H1215840   3.945  10.502   7.572
  283DIO    H1315841   4.092  10.595   7.597
  283DIO    H1415842   3.813  10.642   7.347
  283DIO    H1515843   3.736  10.610   7.502
  283DIO    H1615844   3.749  10.879   7.358
  283DIO    H1715845   3.610  10.774   7.376
  283DIO    H1815846   3.620  10.807   7.627
  283DIO    H1915847   3.750  10.925   7.602
  283DIO    H2015848   3.590  10.956   7.535
  284DIO     F115849   9.733   9.905   6.893
  284DIO     C115850   9.655  10.002   6.841
  284DIO     C215851   9.511   9.985   6.841
  284DIO     C315852   9.422  10.089   6.783
  284DIO     C415853   9.488  10.210   6.730
  284DIO     C515854   9.632  10.225   6.732
  284DIO     F215855   9.688  10.339   6.686
  284DIO     C615856   9.716  10.121   6.788
  284DIO     F315857   9.850  10.136   6.788
  284DIO     C715858   9.276  10.073   6.780
  284DIO     C815859   9.199  10.094   6.656
  284DIO     C915860   9.054  10.079   6.653
  284DIO    C1015861   8.982  10.053   6.776
  284DIO    C1115862   9.054  10.024   6.899
  284DIO    C1215863   9.198  10.036   6.901
  284DIO     F415864   9.263  10.015   7.017
  284DIO     O115865   8.849  10.016   6.762
  284DIO    C1315866   8.755  10.053   6.857
  284DIO     O215867   8.754  10.141   6.947
  284DIO    C1415868   8.626   9.986   6.838
  284DIO    C1515869   8.560   9.982   6.706
  284DIO     F515870   8.622  10.032   6.597
  284DIO    C1615871   8.429   9.922   6.685
  284DIO    C1715872   8.353   9.870   6.798
  284DIO    C1815873   8.422   9.857   6.926
  284DIO    C1915874   8.553   9.916   6.946
  284DIO     F615875   8.616   9.888   7.062
  284DIO    C2015876   8.212   9.818   6.781
  284DIO     O315877   8.143   9.876   6.670
  284DIO    C2115878   8.099  10.009   6.696
  284DIO    C2215879   8.010  10.014   6.820
  284DIO    C2315880   8.091   9.953   6.935
  284DIO     O415881   8.135   9.822   6.902
  284DIO    C2415882   7.877   9.937   6.803
  284DIO    C2515883   7.787   9.985   6.689
  284DIO    C2615884   7.748  10.132   6.699
  284DIO     H115885   9.469   9.895   6.883
  284DIO     H215886   9.427  10.293   6.695
  284DIO     H315887   9.250  10.116   6.563
  284DIO     H415888   8.999  10.086   6.560
  284DIO     H515889   9.000   9.999   6.989
  284DIO     H615890   8.391   9.915   6.584
  284DIO     H715891   8.379   9.800   7.007
  284DIO     H815892   8.222   9.711   6.756
  284DIO     H915893   8.186  10.075   6.709
  284DIO    H1015894   8.046  10.045   6.608
  284DIO    H1115895   7.987  10.118   6.845
  284DIO    H1215896   8.030   9.945   7.025
  284DIO    H1315897   8.177  10.016   6.960
  284DIO    H1415898   7.897   9.830   6.787
  284DIO    H1515899   7.821   9.944   6.897
  284DIO    H1615900   7.834   9.966   6.592
  284DIO    H1715901   7.695   9.925   6.690
  284DIO    H1815902   7.704  10.155   6.797
  284DIO    H1915903   7.835  10.197   6.684
  284DIO    H2015904   7.674  10.156   6.622
  285DIO     F115905   9.100   8.936   2.742
  285DIO     C115906   9.022   9.001   2.831
  285DIO     C215907   8.878   8.999   2.814
  285DIO     C315908   8.789   9.071   2.909
  285DIO     C415909   8.855   9.142   3.021
  285DIO     C515910   8.999   9.142   3.036
  285DIO     F215911   9.054   9.204   3.142
  285DIO     C615912   9.083   9.071   2.942
  285DIO     F315913   9.216   9.073   2.956
  285DIO     C715914   8.643   9.071   2.893
  285DIO     C815915   8.566   9.198   2.895
  285DIO     C915916   8.421   9.198   2.880
  285DIO    C1015917   8.348   9.073   2.872
  285DIO    C1115918   8.421   8.947   2.861
  285DIO    C1215919   8.565   8.947   2.874
  285DIO     F415920   8.630   8.829   2.869
  285DIO     O115921   8.216   9.081   2.834
  285DIO    C1315922   8.122   8.992   2.884
  285DIO     O215923   8.121   8.916   2.984
  285DIO    C1415924   7.993   9.002   2.815
  285DIO    C1515925   7.926   9.132   2.792
  285DIO     F515926   7.989   9.247   2.825
  285DIO    C1615927   7.795   9.144   2.730
  285DIO    C1715928   7.720   9.024   2.694
  285DIO    C1815929   7.788   8.896   2.701
  285DIO    C1915930   7.920   8.885   2.761
  285DIO     F615931   7.983   8.766   2.750
  285DIO    C2015932   7.579   9.034   2.640
  285DIO     O315933   7.509   9.152   2.682
  285DIO    C2115934   7.466   9.145   2.817
  285DIO    C2215935   7.377   9.024   2.840
  285DIO    C2315936   7.457   8.901   2.796
  285DIO     O415937   7.502   8.915   2.662
  285DIO    C2415938   7.244   9.030   2.761
  285DIO    C2515939   7.153   9.149   2.793
  285DIO    C2615940   7.115   9.161   2.939
  285DIO     H115941   8.835   8.944   2.731
  285DIO     H215942   8.794   9.188   3.099
  285DIO     H315943   8.617   9.292   2.904
  285DIO     H415944   8.366   9.291   2.874
  285DIO     H515945   8.366   8.855   2.850
  285DIO     H615946   7.757   9.243   2.708
  285DIO     H715947   7.746   8.807   2.655
  285DIO     H815948   7.589   9.043   2.532
  285DIO     H915949   7.552   9.143   2.884
  285DIO    H1015950   7.413   9.238   2.840
  285DIO    H1115951   7.354   9.014   2.947
  285DIO    H1215952   7.396   8.811   2.802
  285DIO    H1315953   7.544   8.886   2.863
  285DIO    H1415954   7.264   9.030   2.653
  285DIO    H1515955   7.187   8.938   2.782
  285DIO    H1615956   7.201   9.242   2.760
  285DIO    H1715957   7.061   9.139   2.733
  285DIO    H1815958   7.071   9.067   2.976
  285DIO    H1915959   7.201   9.185   3.001
  285DIO    H2015960   7.041   9.241   2.952
  286DIO     F115961   8.438   6.763   9.805
  286DIO     C115962   8.360   6.839   9.885
  286DIO     C215963   8.216   6.835   9.869
  286DIO     C315964   8.127   6.918   9.953
  286DIO     C415965   8.193   7.003  10.055
  286DIO     C515966   8.337   7.005  10.070
  286DIO     F215967   8.393   7.080  10.167
  286DIO     C615968   8.421   6.923   9.986
  286DIO     F315969   8.555   6.926   9.999
  286DIO     C715970   7.981   6.917   9.937
  286DIO     C815971   7.904   7.042   9.923
  286DIO     C915972   7.759   7.041   9.908
  286DIO    C1015973   7.687   6.915   9.916
  286DIO    C1115974   7.759   6.790   9.922
  286DIO    C1215975   7.903   6.791   9.935
  286DIO     F415976   7.968   6.673   9.945
  286DIO     O115977   7.554   6.919   9.877
  286DIO    C1315978   7.460   6.837   9.939
  286DIO     O215979   7.459   6.774  10.048
  286DIO    C1415980   7.331   6.838   9.869
  286DIO    C1515981   7.264   6.964   9.829
  286DIO     F515982   7.327   7.082   9.848
  286DIO    C1615983   7.134   6.967   9.766
  286DIO    C1715984   7.058   6.844   9.747
  286DIO    C1815985   7.127   6.718   9.769
  286DIO    C1915986   7.258   6.715   9.831
  286DIO     F615987   7.321   6.595   9.835
  286DIO    C2015988   6.917   6.847   9.692
  286DIO     O315989   6.847   6.969   9.718
  286DIO    C2115990   6.804   6.980   9.853
  286DIO    C2215991   6.715   6.862   9.891
  286DIO    C2315992   6.796   6.735   9.864
  286DIO     O415993   6.840   6.732   9.728
  286DIO    C2415994   6.582   6.858   9.812
  286DIO    C2515995   6.491   6.981   9.828
  286DIO    C2615996   6.453   7.011   9.972
  286DIO     H115997   8.174   6.770   9.793
  286DIO     H215998   8.132   7.058  10.126
  286DIO     H315999   7.955   7.137   9.919
  286DIO     H416000   7.704   7.132   9.890
  286DIO     H516001   7.705   6.696   9.923
  286DIO     H616002   7.096   7.062   9.732
  286DIO     H716003   7.084   6.624   9.736
  286DIO     H816004   6.927   6.842   9.583
  286DIO     H916005   6.890   6.986   9.919
  286DIO    H1016006   6.751   7.075   9.863
  286DIO    H1116007   6.692   6.867   9.998
  286DIO    H1216008   6.735   6.646   9.881
  286DIO    H1316009   6.882   6.728   9.931
  286DIO    H1416010   6.602   6.844   9.705
  286DIO    H1516011   6.526   6.770   9.844
  286DIO    H1616012   6.539   7.069   9.783
  286DIO    H1716013   6.400   6.963   9.770
  286DIO    H1816014   6.409   6.923  10.020
  286DIO    H1916015   6.540   7.043  10.030
  286DIO    H2016016   6.379   7.092   9.974
  287DIO     F116017   8.473   8.417   3.073
  287DIO     C116018   8.396   8.309   3.052
  287DIO     C216019   8.251   8.322   3.063
  287DIO     C316020   8.163   8.205   3.042
  287DIO     C416021   8.228   8.077   3.008
  287DIO     C516022   8.372   8.067   2.997
  287DIO     F216023   8.428   7.949   2.961
  287DIO     C616024   8.456   8.182   3.018
  287DIO     F316025   8.590   8.171   3.009
  287DIO     C716026   8.016   8.215   3.055
  287DIO     C816027   7.939   8.121   3.138
  287DIO     C916028   7.794   8.131   3.150
  287DIO    C1016029   7.722   8.228   3.071
  287DIO    C1116030   7.794   8.328   2.993
  287DIO    C1216031   7.938   8.319   2.984
  287DIO     F416032   8.003   8.409   2.907
  287DIO     O116033   7.590   8.248   3.104
  287DIO    C1316034   7.495   8.279   3.007
  287DIO     O216035   7.494   8.267   2.882
  287DIO    C1416036   7.366   8.319   3.064
  287DIO    C1516037   7.300   8.239   3.170
  287DIO     F516038   7.362   8.132   3.223
  287DIO    C1616039   7.169   8.273   3.223
  287DIO    C1716040   7.093   8.385   3.168
  287DIO    C1816041   7.162   8.475   3.076
  287DIO    C1916042   7.294   8.442   3.024
  287DIO     F616043   7.356   8.537   2.951
  287DIO    C2016044   6.952   8.414   3.214
  287DIO     O316045   6.883   8.299   3.264
  287DIO    C2116046   6.839   8.212   3.160
  287DIO    C2216047   6.750   8.286   3.061
  287DIO    C2316048   6.831   8.406   3.010
  287DIO     O416049   6.875   8.487   3.118
  287DIO    C2416050   6.617   8.335   3.123
  287DIO    C2516051   6.527   8.226   3.181
  287DIO    C2616052   6.488   8.118   3.081
  287DIO     H116053   8.209   8.418   3.087
  287DIO     H216054   8.168   7.990   2.982
  287DIO     H316055   7.991   8.046   3.197
  287DIO     H416056   7.739   8.067   3.218
  287DIO     H516057   7.740   8.404   2.939
  287DIO     H616058   7.131   8.215   3.306
  287DIO     H716059   7.119   8.570   3.049
  287DIO     H816060   6.962   8.481   3.300
  287DIO     H916061   6.926   8.169   3.109
  287DIO    H1016062   6.786   8.129   3.207
  287DIO    H1116063   6.728   8.221   2.976
  287DIO    H1216064   6.770   8.468   2.944
  287DIO    H1316065   6.917   8.372   2.950
  287DIO    H1416066   6.637   8.408   3.202
  287DIO    H1516067   6.561   8.389   3.045
  287DIO    H1616068   6.574   8.180   3.268
  287DIO    H1716069   6.435   8.274   3.218
  287DIO    H1816070   6.444   8.162   2.991
  287DIO    H1916071   6.575   8.058   3.052
  287DIO    H2016072   6.415   8.051   3.125
  288DIO     F116073   4.489   4.943   1.927
  288DIO     C116074   4.412   4.833   1.928
  288DIO     C216075   4.268   4.848   1.937
  288DIO     C316076   4.179   4.730   1.941
  288DIO     C416077   4.244   4.597   1.933
  288DIO     C516078   4.389   4.585   1.925
  288DIO     F216079   4.444   4.463   1.914
  288DIO     C616080   4.472   4.703   1.922
  288DIO     F316081   4.606   4.690   1.915
  288DIO     C716082   4.033   4.742   1.950
  288DIO     C816083   3.955   4.667   2.052
  288DIO     C916084   3.811   4.679   2.061
  288DIO    C1016085   3.738   4.759   1.963
  288DIO    C1116086   3.811   4.840   1.867
  288DIO    C1216087   3.955   4.830   1.860
  288DIO     F416088   4.020   4.902   1.766
  288DIO     O116089   3.606   4.785   1.992
  288DIO    C1316090   3.511   4.795   1.891
  288DIO     O216091   3.511   4.758   1.771
  288DIO    C1416092   3.382   4.846   1.939
  288DIO    C1516093   3.316   4.789   2.058
  288DIO     F516094   3.379   4.695   2.132
  288DIO    C1616095   3.185   4.833   2.103
  288DIO    C1716096   3.109   4.931   2.027
  288DIO    C1816097   3.178   5.001   1.919
  288DIO    C1916098   3.310   4.958   1.875
  288DIO     F616099   3.372   5.036   1.784
  288DIO    C2016100   2.969   4.970   2.066
  288DIO     O316101   2.899   4.867   2.138
  288DIO    C2116102   2.855   4.761   2.054
  288DIO    C2216103   2.766   4.813   1.942
  288DIO    C2316104   2.847   4.920   1.867
  288DIO     O416105   2.891   5.021   1.957
  288DIO    C2416106   2.634   4.874   1.992
  288DIO    C2516107   2.543   4.779   2.072
  288DIO    C2616108   2.505   4.653   1.996
  288DIO     H116109   4.225   4.948   1.940
  288DIO     H216110   4.184   4.507   1.925
  288DIO     H316111   4.007   4.605   2.124
  288DIO     H416112   3.756   4.631   2.140
  288DIO     H516113   3.756   4.903   1.799
  288DIO     H616114   3.147   4.794   2.197
  288DIO     H716115   3.135   5.089   1.873
  288DIO     H816116   2.978   5.053   2.137
  288DIO     H916117   2.942   4.708   2.013
  288DIO    H1016118   2.803   4.689   2.117
  288DIO    H1116119   2.744   4.731   1.872
  288DIO    H1216120   2.786   4.968   1.790
  288DIO    H1316121   2.933   4.875   1.816
  288DIO    H1416122   2.654   4.962   2.055
  288DIO    H1516123   2.577   4.910   1.906
  288DIO    H1616124   2.590   4.752   2.167
  288DIO    H1716125   2.451   4.833   2.098
  288DIO    H1816126   2.461   4.677   1.899
  288DIO    H1916127   2.591   4.588   1.980
  288DIO    H2016128   2.431   4.596   2.053
  289DIO     F116129   1.373   0.359   9.242
  289DIO     C116130   1.295   0.300   9.149
  289DIO     C216131   1.151   0.300   9.166
  289DIO     C316132   1.062   0.234   9.068
  289DIO     C416133   1.128   0.170   8.952
  289DIO     C516134   1.272   0.171   8.937
  289DIO     F216135   1.328   0.115   8.828
  289DIO     C616136   1.356   0.236   9.035
  289DIO     F316137   1.490   0.235   9.021
  289DIO     C716138   0.916   0.233   9.084
  289DIO     C816139   0.839   0.107   9.074
  289DIO     C916140   0.694   0.105   9.089
  289DIO    C1016141   0.622   0.230   9.105
  289DIO    C1116142   0.694   0.355   9.122
  289DIO    C1216143   0.838   0.356   9.110
  289DIO     F416144   0.903   0.473   9.121
  289DIO     O116145   0.489   0.219   9.142
  289DIO    C1316146   0.395   0.311   9.097
  289DIO     O216147   0.394   0.393   9.001
  289DIO    C1416148   0.266   0.297   9.165
  289DIO    C1516149   0.199   0.166   9.181
  289DIO     F516150   0.262   0.053   9.141
  289DIO    C1616151   0.069   0.151   9.242
  289DIO    C1716152  -0.007   0.268   9.284
  289DIO    C1816153   0.062   0.397   9.286
  289DIO    C1916154   0.193   0.411   9.226
  289DIO     F616155   0.256   0.530   9.244
  289DIO    C2016156  -0.148   0.256   9.338
  289DIO     O316157  -0.218   0.140   9.290
  289DIO    C2116158  -0.261   0.155   9.155
  289DIO    C2216159  -0.350   0.277   9.139
  289DIO    C2316160  -0.269   0.397   9.190
  289DIO     O416161  -0.225   0.375   9.323
  289DIO    C2416162  -0.483   0.267   9.217
  289DIO    C2516163  -0.574   0.149   9.179
  289DIO    C2616164  -0.612   0.146   9.032
  289DIO     H116165   1.109   0.350   9.252
  289DIO     H216166   1.067   0.129   8.872
  289DIO     H316167   0.890   0.013   9.060
  289DIO     H416168   0.639   0.012   9.090
  289DIO     H516169   0.640   0.447   9.139
  289DIO     H616170   0.031   0.051   9.259
  289DIO     H716171   0.019   0.483   9.336
  289DIO     H816172  -0.138   0.240   9.446
  289DIO     H916173  -0.175   0.161   9.088
  289DIO    H1016174  -0.314   0.063   9.127
  289DIO    H1116175  -0.373   0.293   9.033
  289DIO    H1216176  -0.330   0.488   9.189
  289DIO    H1316177  -0.183   0.416   9.125
  289DIO    H1416178  -0.463   0.260   9.325
  289DIO    H1516179  -0.539   0.360   9.202
  289DIO    H1616180  -0.526   0.054   9.207
  289DIO    H1716181  -0.665   0.156   9.239
  289DIO    H1816182  -0.656   0.242   9.001
  289DIO    H1916183  -0.525   0.125   8.969
  289DIO    H2016184  -0.686   0.067   9.014
  290DIO     F116185   1.354   2.544   9.339
  290DIO     C116186   1.277   2.462   9.413
  290DIO     C216187   1.133   2.479   9.409
  290DIO     C316188   1.044   2.393   9.491
  290DIO     C416189   1.109   2.289   9.573
  290DIO     C516190   1.254   2.274   9.575
  290DIO     F216191   1.309   2.176   9.648
  290DIO     C616192   1.337   2.360   9.495
  290DIO     F316193   1.471   2.346   9.498
  290DIO     C716194   0.897   2.409   9.489
  290DIO     C816195   0.820   2.420   9.615
  290DIO     C916196   0.676   2.435   9.614
  290DIO    C1016197   0.603   2.430   9.489
  290DIO    C1116198   0.676   2.427   9.363
  290DIO    C1216199   0.820   2.414   9.364
  290DIO     F416200   0.885   2.406   9.246
  290DIO     O116201   0.471   2.469   9.493
  290DIO    C1316202   0.376   2.409   9.410
  290DIO     O216203   0.375   2.301   9.345
  290DIO    C1416204   0.247   2.479   9.412
  290DIO    C1516205   0.181   2.516   9.539
  290DIO     F516206   0.244   2.495   9.657
  290DIO    C1616207   0.050   2.578   9.544
  290DIO    C1716208  -0.026   2.601   9.421
  290DIO    C1816209   0.043   2.581   9.294
  290DIO    C1916210   0.175   2.519   9.290
  290DIO     F616211   0.237   2.517   9.170
  290DIO    C2016212  -0.166   2.656   9.425
  290DIO     O316213  -0.236   2.627   9.547
  290DIO    C2116214  -0.280   2.492   9.555
  290DIO    C2216215  -0.369   2.456   9.436
  290DIO    C2316216  -0.288   2.486   9.310
  290DIO     O416217  -0.244   2.622   9.309
  290DIO    C2416218  -0.501   2.535   9.434
  290DIO    C2516219  -0.592   2.517   9.556
  290DIO    C2616220  -0.631   2.372   9.583
  290DIO     H116221   1.090   2.556   9.346
  290DIO     H216222   1.049   2.217   9.627
  290DIO     H316223   0.872   2.422   9.710
  290DIO     H416224   0.621   2.452   9.706
  290DIO     H516225   0.621   2.428   9.269
  290DIO     H616226   0.012   2.611   9.640
  290DIO     H716227   0.000   2.616   9.201
  290DIO     H816228  -0.157   2.765   9.422
  290DIO     H916229  -0.193   2.425   9.559
  290DIO    H1016230  -0.333   2.479   9.650
  290DIO    H1116231  -0.391   2.349   9.439
  290DIO    H1216232  -0.349   2.471   9.220
  290DIO    H1316233  -0.202   2.419   9.302
  290DIO    H1416234  -0.482   2.642   9.422
  290DIO    H1516235  -0.558   2.505   9.345
  290DIO    H1616236  -0.545   2.560   9.645
  290DIO    H1716237  -0.684   2.575   9.539
  290DIO    H1816238  -0.674   2.326   9.494
  290DIO    H1916239  -0.544   2.313   9.614
  290DIO    H2016240  -0.704   2.368   9.664
  291DIO     F116241   5.731  10.038   2.321
  291DIO     C116242   5.653  10.129   2.259
  291DIO     C216243   5.509  10.112   2.260
  291DIO     C316244   5.420  10.207   2.190
  291DIO     C416245   5.486  10.322   2.122
  291DIO     C516246   5.630  10.336   2.122
  291DIO     F216247   5.685  10.443   2.062
  291DIO     C616248   5.714  10.241   2.190
  291DIO     F316249   5.847  10.255   2.189
  291DIO     C716250   5.274  10.191   2.189
  291DIO     C816251   5.197  10.197   2.063
  291DIO     C916252   5.052  10.182   2.062
  291DIO    C1016253   4.979  10.171   2.187
  291DIO    C1116254   5.052  10.157   2.313
  291DIO    C1216255   5.196  10.170   2.313
  291DIO     F416256   5.261  10.163   2.431
  291DIO     O116257   4.847  10.133   2.178
  291DIO    C1316258   4.753  10.181   2.268
  291DIO     O216259   4.752  10.280   2.346
  291DIO    C1416260   4.624  10.112   2.257
  291DIO    C1516261   4.557  10.092   2.126
  291DIO     F516262   4.620  10.128   2.012
  291DIO    C1616263   4.426  10.030   2.113
  291DIO    C1716264   4.351   9.992   2.232
  291DIO    C1816265   4.419   9.996   2.361
  291DIO    C1916266   4.551  10.056   2.373
  291DIO     F616267   4.614  10.042   2.492
  291DIO    C2016268   4.210   9.938   2.221
  291DIO     O316269   4.140   9.983   2.104
  291DIO    C2116270   4.097  10.118   2.114
  291DIO    C2216271   4.008  10.138   2.236
  291DIO    C2316272   4.088  10.091   2.357
  291DIO     O416273   4.133   9.957   2.340
  291DIO    C2416274   3.875  10.059   2.228
  291DIO    C2516275   3.784  10.093   2.109
  291DIO    C2616276   3.746  10.240   2.101
  291DIO     H116277   5.466  10.027   2.313
  291DIO     H216278   5.425  10.400   2.078
  291DIO     H316279   5.248  10.207   1.969
  291DIO     H416280   4.997  10.177   1.969
  291DIO     H516281   4.997  10.144   2.405
  291DIO     H616282   4.388  10.010   2.014
  291DIO     H716283   4.377   9.948   2.448
  291DIO     H816284   4.220   9.830   2.210
  291DIO     H916285   4.183  10.184   2.118
  291DIO    H1016286   4.044  10.142   2.021
  291DIO    H1116287   3.985  10.244   2.248
  291DIO    H1216288   4.027  10.095   2.448
  291DIO    H1316289   4.175  10.157   2.374
  291DIO    H1416290   3.895   9.951   2.226
  291DIO    H1516291   3.818  10.077   2.320
  291DIO    H1616292   3.832  10.062   2.015
  291DIO    H1716293   3.692  10.033   2.118
  291DIO    H1816294   3.702  10.275   2.195
  291DIO    H1916295   3.832  10.303   2.078
  291DIO    H2016296   3.672  10.255   2.022
  292DIO     F116297   6.325  10.624   2.424
  292DIO     C116298   6.247  10.701   2.503
  292DIO     C216299   6.103  10.697   2.486
  292DIO     C316300   6.014  10.782   2.569
  292DIO     C416301   6.080  10.868   2.670
  292DIO     C516302   6.224  10.870   2.685
  292DIO     F216303   6.280  10.947   2.781
  292DIO     C616304   6.308  10.787   2.602
  292DIO     F316305   6.442  10.791   2.615
  292DIO     C716306   5.868  10.780   2.553
  292DIO     C816307   5.791  10.905   2.538
  292DIO     C916308   5.646  10.904   2.523
  292DIO    C1016309   5.574  10.778   2.532
  292DIO    C1116310   5.646  10.653   2.540
  292DIO    C1216311   5.790  10.654   2.552
  292DIO     F416312   5.855  10.537   2.565
  292DIO     O116313   5.441  10.781   2.493
  292DIO    C1316314   5.347  10.700   2.556
  292DIO     O216315   5.346  10.640   2.666
  292DIO    C1416316   5.218  10.700   2.486
  292DIO    C1516317   5.151  10.826   2.445
  292DIO     F516318   5.214  10.944   2.461
  292DIO    C1616319   5.021  10.828   2.382
  292DIO    C1716320   4.945  10.705   2.364
  292DIO    C1816321   5.014  10.579   2.388
  292DIO    C1916322   5.145  10.577   2.450
  292DIO     F616323   5.208  10.457   2.456
  292DIO    C2016324   4.804  10.707   2.309
  292DIO     O316325   4.734  10.829   2.333
  292DIO    C2116326   4.691  10.842   2.468
  292DIO    C2216327   4.602  10.725   2.508
  292DIO    C2316328   4.683  10.598   2.482
  292DIO     O416329   4.727  10.592   2.347
  292DIO    C2416330   4.469  10.720   2.429
  292DIO    C2516331   4.378  10.843   2.443
  292DIO    C2616332   4.340  10.875   2.586
  292DIO     H116333   6.061  10.631   2.412
  292DIO     H216334   6.019  10.924   2.740
  292DIO     H316335   5.842  11.000   2.532
  292DIO     H416336   5.591  10.995   2.503
  292DIO     H516337   5.592  10.559   2.542
  292DIO     H616338   4.983  10.923   2.346
  292DIO     H716339   4.971  10.485   2.356
  292DIO     H816340   4.814  10.700   2.200
  292DIO     H916341   4.777  10.849   2.534
  292DIO    H1016342   4.638  10.938   2.477
  292DIO    H1116343   4.579  10.731   2.615
  292DIO    H1216344   4.622  10.509   2.501
  292DIO    H1316345   4.769  10.592   2.550
  292DIO    H1416346   4.489  10.705   2.322
  292DIO    H1516347   4.413  10.632   2.462
  292DIO    H1616348   4.426  10.930   2.397
  292DIO    H1716349   4.287  10.824   2.386
  292DIO    H1816350   4.296  10.788   2.636
  292DIO    H1916351   4.427  10.908   2.645
  292DIO    H2016352   4.266  10.956   2.588
  293DIO     F116353   6.575   6.603   1.783
  293DIO     C116354   6.497   6.700   1.732
  293DIO     C216355   6.353   6.683   1.731
  293DIO     C316356   6.264   6.787   1.674
  293DIO     C416357   6.330   6.908   1.620
  293DIO     C516358   6.474   6.923   1.622
  293DIO     F216359   6.529   7.037   1.576
  293DIO     C616360   6.558   6.819   1.678
  293DIO     F316361   6.692   6.834   1.678
  293DIO     C716362   6.118   6.771   1.671
  293DIO     C816363   6.041   6.792   1.546
  293DIO     C916364   5.896   6.777   1.543
  293DIO    C1016365   5.823   6.751   1.666
  293DIO    C1116366   5.896   6.722   1.789
  293DIO    C1216367   6.040   6.734   1.791
  293DIO     F416368   6.105   6.713   1.907
  293DIO     O116369   5.691   6.714   1.652
  293DIO    C1316370   5.597   6.751   1.748
  293DIO     O216371   5.596   6.839   1.838
  293DIO    C1416372   5.468   6.684   1.728
  293DIO    C1516373   5.401   6.680   1.596
  293DIO     F516374   5.464   6.730   1.487
  293DIO    C1616375   5.271   6.621   1.576
  293DIO    C1716376   5.195   6.568   1.689
  293DIO    C1816377   5.264   6.555   1.817
  293DIO    C1916378   5.395   6.614   1.836
  293DIO     F616379   5.458   6.586   1.953
  293DIO    C2016380   5.054   6.516   1.671
  293DIO     O316381   4.984   6.574   1.560
  293DIO    C2116382   4.941   6.707   1.587
  293DIO    C2216383   4.852   6.712   1.710
  293DIO    C2316384   4.933   6.651   1.825
  293DIO     O416385   4.977   6.520   1.792
  293DIO    C2416386   4.719   6.635   1.693
  293DIO    C2516387   4.628   6.683   1.579
  293DIO    C2616388   4.590   6.830   1.589
  293DIO     H116389   6.310   6.593   1.773
  293DIO     H216390   6.269   6.992   1.586
  293DIO     H316391   6.092   6.814   1.454
  293DIO     H416392   5.841   6.784   1.451
  293DIO     H516393   5.842   6.697   1.879
  293DIO     H616394   5.232   6.613   1.474
  293DIO     H716395   5.221   6.498   1.897
  293DIO     H816396   5.064   6.410   1.646
  293DIO     H916397   5.027   6.773   1.599
  293DIO    H1016398   4.888   6.743   1.498
  293DIO    H1116399   4.829   6.816   1.735
  293DIO    H1216400   4.871   6.643   1.916
  293DIO    H1316401   5.019   6.714   1.850
  293DIO    H1416402   4.739   6.528   1.677
  293DIO    H1516403   4.663   6.642   1.787
  293DIO    H1616404   4.676   6.664   1.482
  293DIO    H1716405   4.537   6.623   1.580
  293DIO    H1816406   4.546   6.853   1.687
  293DIO    H1916407   4.676   6.895   1.574
  293DIO    H2016408   4.516   6.855   1.512
  294DIO     F116409   1.170   0.374   9.989
  294DIO     C116410   1.092   0.421  10.088
  294DIO     C216411   0.948   0.423  10.071
  294DIO     C316412   0.859   0.476  10.177
  294DIO     C416413   0.925   0.524  10.301
  294DIO     C516414   1.069   0.522  10.315
  294DIO     F216415   1.125   0.563  10.431
  294DIO     C616416   1.153   0.470  10.210
  294DIO     F316417   1.287   0.469  10.224
  294DIO     C716418   0.713   0.479  10.161
  294DIO     C816419   0.636   0.603  10.187
  294DIO     C916420   0.491   0.606  10.173
  294DIO    C1016421   0.419   0.484  10.141
  294DIO    C1116422   0.491   0.363  10.108
  294DIO    C1216423   0.635   0.361  10.120
  294DIO     F416424   0.700   0.245  10.094
  294DIO     O116425   0.286   0.500  10.105
  294DIO    C1316426   0.192   0.403  10.138
  294DIO     O216427   0.191   0.310  10.223
  294DIO    C1416428   0.063   0.425  10.072
  294DIO    C1516429  -0.003   0.558  10.074
  294DIO     F516430   0.059   0.664  10.128
  294DIO    C1616431  -0.134   0.580  10.015
  294DIO    C1716432  -0.210   0.469   9.958
  294DIO    C1816433  -0.141   0.342   9.940
  294DIO    C1916434  -0.010   0.320   9.998
  294DIO     F616435   0.053   0.205   9.965
  294DIO    C2016436  -0.351   0.489   9.907
  294DIO     O316437  -0.420   0.597   9.969
  294DIO    C2116438  -0.464   0.566  10.101
  294DIO    C2216439  -0.553   0.442  10.101
  294DIO    C2316440  -0.472   0.330  10.035
  294DIO     O416441  -0.428   0.368   9.906
  294DIO    C2416442  -0.686   0.462  10.025
  294DIO    C2516443  -0.776   0.574  10.077
  294DIO    C2616444  -0.815   0.558  10.224
  294DIO     H116445   0.906   0.384   9.979
  294DIO     H216446   0.864   0.555  10.385
  294DIO     H316447   0.687   0.694  10.213
  294DIO     H416448   0.436   0.698  10.183
  294DIO     H516449   0.437   0.274  10.079
  294DIO     H616450  -0.172   0.682  10.011
  294DIO     H716451  -0.184   0.263   9.879
  294DIO     H816452  -0.341   0.518   9.801
  294DIO     H916453  -0.377   0.551  10.166
  294DIO    H1016454  -0.517   0.653  10.140
  294DIO    H1116455  -0.576   0.413  10.204
  294DIO    H1216456  -0.533   0.240  10.024
  294DIO    H1316457  -0.386   0.302  10.097
  294DIO    H1416458  -0.666   0.483   9.919
  294DIO    H1516459  -0.742   0.368  10.028
  294DIO    H1616460  -0.729   0.672  10.062
  294DIO    H1716461  -0.868   0.575  10.017
  294DIO    H1816462  -0.859   0.460  10.243
  294DIO    H1916463  -0.728   0.571  10.289
  294DIO    H2016464  -0.889   0.634  10.252
  295DIO     F116465  10.405   8.787   7.770
  295DIO     C116466  10.327   8.686   7.815
  295DIO     C216467  10.183   8.703   7.817
  295DIO     C316468  10.094   8.596   7.868
  295DIO     C416469  10.160   8.472   7.914
  295DIO     C516470  10.304   8.457   7.911
  295DIO     F216471  10.360   8.341   7.950
  295DIO     C616472  10.388   8.564   7.862
  295DIO     F316473  10.522   8.550   7.861
  295DIO     C716474   9.948   8.612   7.872
  295DIO     C816475   9.871   8.583   7.995
  295DIO     C916476   9.726   8.598   7.999
  295DIO    C1016477   9.654   8.632   7.878
  295DIO    C1116478   9.726   8.668   7.757
  295DIO    C1216479   9.870   8.656   7.754
  295DIO     F416480   9.935   8.685   7.640
  295DIO     O116481   9.521   8.668   7.894
  295DIO    C1316482   9.427   8.637   7.796
  295DIO     O216483   9.426   8.554   7.701
  295DIO    C1416484   9.298   8.702   7.820
  295DIO    C1516485   9.232   8.698   7.952
  295DIO     F516486   9.294   8.642   8.058
  295DIO    C1616487   9.101   8.756   7.976
  295DIO    C1716488   9.025   8.816   7.866
  295DIO    C1816489   9.094   8.836   7.740
  295DIO    C1916490   9.225   8.779   7.716
  295DIO     F616491   9.288   8.814   7.602
  295DIO    C2016492   8.884   8.866   7.887
  295DIO     O316493   8.815   8.802   7.994
  295DIO    C2116494   8.771   8.671   7.960
  295DIO    C2216495   8.682   8.673   7.836
  295DIO    C2316496   8.763   8.741   7.725
  295DIO     O416497   8.807   8.870   7.767
  295DIO    C2416498   8.549   8.749   7.858
  295DIO    C2516499   8.459   8.694   7.969
  295DIO    C2616500   8.420   8.548   7.950
  295DIO     H116501  10.141   8.796   7.781
  295DIO     H216502  10.099   8.386   7.943
  295DIO     H316503   9.922   8.556   8.086
  295DIO     H416504   9.671   8.585   8.091
  295DIO     H516505   9.672   8.698   7.669
  295DIO     H616506   9.063   8.758   8.077
  295DIO     H716507   9.051   8.899   7.662
  295DIO     H816508   8.894   8.971   7.918
  295DIO     H916509   8.858   8.606   7.943
  295DIO    H1016510   8.718   8.629   8.046
  295DIO    H1116511   8.659   8.571   7.805
  295DIO    H1216512   8.702   8.754   7.635
  295DIO    H1316513   8.849   8.680   7.696
  295DIO    H1416514   8.569   8.855   7.880
  295DIO    H1516515   8.493   8.748   7.764
  295DIO    H1616516   8.506   8.707   8.067
  295DIO    H1716517   8.367   8.754   7.971
  295DIO    H1816518   8.376   8.531   7.851
  295DIO    H1916519   8.507   8.482   7.961
  295DIO    H2016520   8.346   8.519   8.025
  296DIO     F116521   2.795   3.869   2.496
  296DIO     C116522   2.718   3.945   2.416
  296DIO     C216523   2.574   3.929   2.421
  296DIO     C316524   2.485   4.008   2.333
  296DIO     C416525   2.550   4.106   2.243
  296DIO     C516526   2.695   4.121   2.240
  296DIO     F216527   2.750   4.214   2.160
  296DIO     C616528   2.778   4.041   2.327
  296DIO     F316529   2.912   4.054   2.322
  296DIO     C716530   2.338   3.993   2.335
  296DIO     C816531   2.261   3.972   2.211
  296DIO     C916532   2.117   3.957   2.213
  296DIO    C1016533   2.044   3.972   2.338
  296DIO    C1116534   2.116   3.984   2.463
  296DIO    C1216535   2.261   3.997   2.461
  296DIO     F416536   2.325   4.014   2.578
  296DIO     O116537   1.912   3.933   2.336
  296DIO    C1316538   1.817   3.999   2.415
  296DIO     O216539   1.816   4.111   2.471
  296DIO    C1416540   1.688   3.929   2.418
  296DIO    C1516541   1.622   3.882   2.294
  296DIO     F516542   1.684   3.895   2.175
  296DIO    C1616543   1.491   3.820   2.294
  296DIO    C1716544   1.415   3.806   2.418
  296DIO    C1816545   1.484   3.836   2.543
  296DIO    C1916546   1.616   3.897   2.543
  296DIO     F616547   1.678   3.908   2.662
  296DIO    C2016548   1.275   3.751   2.418
  296DIO     O316549   1.205   3.771   2.294
  296DIO    C2116550   1.161   3.905   2.276
  296DIO    C2216551   1.072   3.950   2.392
  296DIO    C2316552   1.153   3.929   2.520
  296DIO     O416553   1.197   3.794   2.531
  296DIO    C2416554   0.939   3.871   2.400
  296DIO    C2516555   0.849   3.880   2.277
  296DIO    C2616556   0.810   4.022   2.239
  296DIO     H116557   2.531   3.857   2.490
  296DIO     H216558   2.490   4.174   2.184
  296DIO     H316559   2.313   3.963   2.116
  296DIO     H416560   2.061   3.934   2.123
  296DIO     H516561   2.062   3.990   2.556
  296DIO     H616562   1.453   3.780   2.201
  296DIO     H716563   1.441   3.807   2.638
  296DIO     H816564   1.284   3.643   2.429
  296DIO     H916565   1.248   3.971   2.267
  296DIO    H1016566   1.108   3.911   2.181
  296DIO    H1116567   1.050   4.056   2.382
  296DIO    H1216568   1.092   3.951   2.608
  296DIO    H1316569   1.239   3.997   2.523
  296DIO    H1416570   0.959   3.765   2.420
  296DIO    H1516571   0.883   3.908   2.487
  296DIO    H1616572   0.896   3.831   2.191
  296DIO    H1716573   0.757   3.823   2.298
  296DIO    H1816574   0.766   4.075   2.324
  296DIO    H1916575   0.897   4.079   2.204
  296DIO    H2016576   0.737   4.021   2.158
  297DIO     F116577  10.771  10.422   5.226
  297DIO     C116578  10.694  10.326   5.279
  297DIO     C216579  10.550  10.343   5.280
  297DIO     C316580  10.461  10.241   5.340
  297DIO     C416581  10.526  10.120   5.396
  297DIO     C516582  10.671  10.106   5.395
  297DIO     F216583  10.726   9.993   5.444
  297DIO     C616584  10.754  10.208   5.336
  297DIO     F316585  10.888  10.194   5.336
  297DIO     C716586  10.314  10.256   5.342
  297DIO     C816587  10.237  10.239   5.467
  297DIO     C916588  10.093  10.254   5.469
  297DIO    C1016589  10.020  10.277   5.346
  297DIO    C1116590  10.092  10.302   5.223
  297DIO    C1216591  10.237  10.290   5.221
  297DIO     F416592  10.301  10.309   5.104
  297DIO     O116593   9.888  10.314   5.359
  297DIO    C1316594   9.793  10.274   5.265
  297DIO     O216595   9.792  10.184   5.177
  297DIO    C1416596   9.664  10.342   5.283
  297DIO    C1516597   9.598  10.349   5.415
  297DIO     F516598   9.660  10.302   5.525
  297DIO    C1616599   9.467  10.409   5.433
  297DIO    C1716600   9.391  10.459   5.319
  297DIO    C1816601   9.460  10.468   5.191
  297DIO    C1916602   9.592  10.409   5.173
  297DIO     F616603   9.654  10.435   5.056
  297DIO    C2016604   9.251  10.511   5.335
  297DIO     O316605   9.181  10.456   5.447
  297DIO    C2116606   9.137  10.322   5.425
  297DIO    C2216607   9.048  10.315   5.301
  297DIO    C2316608   9.129  10.372   5.185
  297DIO     O416609   9.173  10.505   5.215
  297DIO    C2416610   8.915  10.392   5.317
  297DIO    C2516611   8.825  10.346   5.431
  297DIO    C2616612   8.786  10.200   5.425
  297DIO     H116613  10.507  10.432   5.235
  297DIO     H216614  10.466  10.038   5.433
  297DIO     H316615  10.289  10.219   5.560
  297DIO     H416616  10.037  10.249   5.562
  297DIO     H516617  10.038  10.325   5.132
  297DIO     H616618   9.429  10.419   5.534
  297DIO     H716619   9.417  10.524   5.108
  297DIO     H816620   9.260  10.618   5.357
  297DIO     H916621   9.224  10.256   5.414
  297DIO    H1016622   9.084  10.289   5.514
  297DIO    H1116623   9.026  10.210   5.279
  297DIO    H1216624   9.068  10.378   5.094
  297DIO    H1316625   9.215  10.309   5.161
  297DIO    H1416626   8.935  10.499   5.330
  297DIO    H1516627   8.859  10.383   5.223
  297DIO    H1616628   8.872  10.368   5.528
  297DIO    H1716629   8.733  10.407   5.429
  297DIO    H1816630   8.742  10.174   5.328
  297DIO    H1916631   8.873  10.135   5.442
  297DIO    H2016632   8.713  10.177   5.503
  298DIO     F116633   5.593   4.011   6.866
  298DIO     C116634   5.515   4.089   6.789
  298DIO     C216635   5.371   4.073   6.793
  298DIO     C316636   5.282   4.155   6.708
  298DIO     C416637   5.348   4.256   6.621
  298DIO     C516638   5.492   4.270   6.618
  298DIO     F216639   5.547   4.365   6.541
  298DIO     C616640   5.576   4.188   6.702
  298DIO     F316641   5.710   4.201   6.698
  298DIO     C716642   5.136   4.139   6.709
  298DIO     C816643   5.059   4.123   6.584
  298DIO     C916644   4.914   4.108   6.586
  298DIO    C1016645   4.841   4.119   6.711
  298DIO    C1116646   4.914   4.127   6.837
  298DIO    C1216647   5.058   4.140   6.835
  298DIO     F416648   5.123   4.153   6.952
  298DIO     O116649   4.709   4.079   6.709
  298DIO    C1316650   4.615   4.143   6.789
  298DIO     O216651   4.614   4.253   6.849
  298DIO    C1416652   4.486   4.073   6.790
  298DIO    C1516653   4.419   4.030   6.665
  298DIO     F516654   4.482   4.046   6.546
  298DIO    C1616655   4.289   3.967   6.663
  298DIO    C1716656   4.213   3.950   6.786
  298DIO    C1816657   4.282   3.976   6.912
  298DIO    C1916658   4.413   4.038   6.914
  298DIO     F616659   4.476   4.045   7.033
  298DIO    C2016660   4.072   3.896   6.785
  298DIO     O316661   4.002   3.919   6.662
  298DIO    C2116662   3.959   4.053   6.648
  298DIO    C2216663   3.870   4.094   6.765
  298DIO    C2316664   3.951   4.070   6.892
  298DIO     O416665   3.995   3.935   6.899
  298DIO    C2416666   3.737   4.016   6.771
  298DIO    C2516667   3.646   4.028   6.648
  298DIO    C2616668   3.608   4.172   6.614
  298DIO     H116669   5.328   3.999   6.860
  298DIO     H216670   5.287   4.325   6.563
  298DIO     H316671   5.110   4.117   6.489
  298DIO     H416672   4.859   4.087   6.495
  298DIO     H516673   4.860   4.130   6.930
  298DIO     H616674   4.250   3.931   6.568
  298DIO     H716675   4.239   3.945   7.007
  298DIO     H816676   4.082   3.787   6.792
  298DIO     H916677   4.045   4.120   6.640
  298DIO    H1016678   3.906   4.062   6.553
  298DIO    H1116679   3.847   4.201   6.758
  298DIO    H1216680   3.889   4.089   6.981
  298DIO    H1316681   4.037   4.138   6.898
  298DIO    H1416682   3.757   3.909   6.787
  298DIO    H1516683   3.681   4.050   6.858
  298DIO    H1616684   3.694   3.982   6.561
  298DIO    H1716685   3.555   3.971   6.667
  298DIO    H1816686   3.564   4.222   6.701
  298DIO    H1916687   3.694   4.230   6.581
  298DIO    H2016688   3.534   4.173   6.533
  299DIO     F116689   6.322   0.096   4.201
  299DIO     C116690   6.244   0.097   4.091
  299DIO     C216691   6.100   0.089   4.105
  299DIO     C316692   6.011   0.088   3.987
  299DIO     C416693   6.077   0.098   3.854
  299DIO     C516694   6.221   0.107   3.843
  299DIO     F216695   6.277   0.121   3.721
  299DIO     C616696   6.305   0.107   3.960
  299DIO     F316697   6.439   0.114   3.948
  299DIO     C716698   5.865   0.078   3.999
  299DIO     C816699   5.788  -0.022   3.922
  299DIO     C916700   5.643  -0.031   3.933
  299DIO    C1016701   5.571   0.064   4.015
  299DIO    C1116702   5.643   0.158   4.099
  299DIO    C1216703   5.787   0.166   4.089
  299DIO     F416704   5.852   0.257   4.163
  299DIO     O116705   5.438   0.034   4.041
  299DIO    C1316706   5.344   0.136   4.054
  299DIO     O216707   5.343   0.257   4.019
  299DIO    C1416708   5.215   0.087   4.103
  299DIO    C1516709   5.148  -0.032   4.044
  299DIO     F516710   5.211  -0.103   3.948
  299DIO    C1616711   5.018  -0.078   4.086
  299DIO    C1716712   4.942  -0.003   4.186
  299DIO    C1816713   5.011   0.103   4.258
  299DIO    C1916714   5.142   0.148   4.216
  299DIO     F616715   5.205   0.237   4.297
  299DIO    C2016716   4.801  -0.044   4.224
  299DIO     O316717   4.731  -0.113   4.120
  299DIO    C2116718   4.688  -0.027   4.015
  299DIO    C2216719   4.599   0.084   4.070
  299DIO    C2316720   4.680   0.156   4.178
  299DIO     O416721   4.724   0.064   4.278
  299DIO    C2416722   4.466   0.032   4.130
  299DIO    C2516723   4.375  -0.045   4.033
  299DIO    C2616724   4.337   0.034   3.909
  299DIO     H116725   6.058   0.082   4.205
  299DIO     H216726   6.016   0.108   3.765
  299DIO     H316727   5.839  -0.093   3.858
  299DIO     H416728   5.588  -0.110   3.883
  299DIO     H516729   5.589   0.225   4.164
  299DIO     H616730   4.980  -0.170   4.045
  299DIO     H716731   4.968   0.147   4.348
  299DIO     H816732   4.811  -0.116   4.305
  299DIO     H916733   4.774   0.015   3.964
  299DIO    H1016734   4.635  -0.088   3.942
  299DIO    H1116735   4.576   0.156   3.990
  299DIO    H1216736   4.619   0.232   4.228
  299DIO    H1316737   4.766   0.208   4.135
  299DIO    H1416738   4.486  -0.033   4.216
  299DIO    H1516739   4.410   0.118   4.168
  299DIO    H1616740   4.423  -0.139   4.003
  299DIO    H1716741   4.284  -0.072   4.086
  299DIO    H1816742   4.293   0.131   3.935
  299DIO    H1916743   4.424   0.052   3.844
  299DIO    H2016744   4.263  -0.022   3.850
  300DIO     F116745   8.184   6.809   8.646
  300DIO     C116746   8.106   6.917   8.670
  300DIO     C216747   7.962   6.904   8.658
  300DIO     C316748   7.873   7.020   8.681
  300DIO     C416749   7.939   7.148   8.719
  300DIO     C516750   8.083   7.157   8.730
  300DIO     F216751   8.139   7.274   8.769
  300DIO     C616752   8.167   7.042   8.706
  300DIO     F316753   8.301   7.053   8.715
  300DIO     C716754   7.727   7.010   8.669
  300DIO     C816755   7.650   7.107   8.588
  300DIO     C916756   7.505   7.097   8.576
  300DIO    C1016757   7.433   6.997   8.652
  300DIO    C1116758   7.505   6.896   8.727
  300DIO    C1216759   7.649   6.905   8.737
  300DIO     F416760   7.714   6.813   8.811
  300DIO     O116761   7.300   6.979   8.618
  300DIO    C1316762   7.206   6.945   8.715
  300DIO     O216763   7.205   6.954   8.840
  300DIO    C1416764   7.077   6.907   8.657
  300DIO    C1516765   7.010   6.989   8.553
  300DIO     F516766   7.073   7.098   8.502
  300DIO    C1616767   6.880   6.957   8.499
  300DIO    C1716768   6.804   6.844   8.551
  300DIO    C1816769   6.873   6.751   8.641
  300DIO    C1916770   7.004   6.783   8.693
  300DIO     F616771   7.067   6.686   8.764
  300DIO    C2016772   6.663   6.815   8.504
  300DIO     O316773   6.593   6.931   8.458
  300DIO    C2116774   6.550   7.016   8.563
  300DIO    C2216775   6.461   6.939   8.661
  300DIO    C2316776   6.542   6.819   8.709
  300DIO     O416777   6.586   6.740   8.599
  300DIO    C2416778   6.328   6.892   8.598
  300DIO    C2516779   6.237   7.002   8.542
  300DIO    C2616780   6.199   7.108   8.645
  300DIO     H116781   7.920   6.808   8.632
  300DIO     H216782   7.878   7.233   8.747
  300DIO     H316783   7.701   7.183   8.531
  300DIO     H416784   7.450   7.162   8.510
  300DIO     H516785   7.451   6.819   8.780
  300DIO     H616786   6.842   7.016   8.417
  300DIO     H716787   6.830   6.655   8.665
  300DIO     H816788   6.673   6.750   8.417
  300DIO     H916789   6.636   7.058   8.615
  300DIO    H1016790   6.497   7.100   8.519
  300DIO    H1116791   6.438   7.003   8.747
  300DIO    H1216792   6.481   6.754   8.773
  300DIO    H1316793   6.628   6.851   8.769
  300DIO    H1416794   6.348   6.821   8.517
  300DIO    H1516795   6.272   6.836   8.674
  300DIO    H1616796   6.285   7.051   8.456
  300DIO    H1716797   6.146   6.956   8.504
  300DIO    H1816798   6.155   7.062   8.734
  300DIO    H1916799   6.286   7.167   8.676
  300DIO    H2016800   6.125   7.177   8.602
  301DIO     F116801   9.716   3.051   4.977
  301DIO     C116802   9.638   3.001   4.879
  301DIO     C216803   9.494   3.000   4.896
  301DIO     C316804   9.406   2.944   4.791
  301DIO     C416805   9.471   2.892   4.669
  301DIO     C516806   9.615   2.894   4.655
  301DIO     F216807   9.671   2.850   4.540
  301DIO     C616808   9.699   2.949   4.759
  301DIO     F316809   9.833   2.949   4.744
  301DIO     C716810   9.259   2.941   4.807
  301DIO     C816811   9.182   2.817   4.785
  301DIO     C916812   9.037   2.814   4.799
  301DIO    C1016813   8.965   2.936   4.827
  301DIO    C1116814   9.037   3.059   4.858
  301DIO    C1216815   9.181   3.061   4.845
  301DIO     F416816   9.246   3.177   4.868
  301DIO     O116817   8.833   2.922   4.864
  301DIO    C1316818   8.738   3.018   4.828
  301DIO     O216819   8.737   3.109   4.741
  301DIO    C1416820   8.609   2.997   4.895
  301DIO    C1516821   8.543   2.865   4.897
  301DIO     F516822   8.605   2.757   4.846
  301DIO    C1616823   8.412   2.844   4.956
  301DIO    C1716824   8.336   2.956   5.010
  301DIO    C1816825   8.405   3.084   5.025
  301DIO    C1916826   8.536   3.105   4.966
  301DIO     F616827   8.599   3.221   4.996
  301DIO    C2016828   8.195   2.938   5.062
  301DIO     O316829   8.126   2.828   5.003
  301DIO    C2116830   8.082   2.856   4.870
  301DIO    C2216831   7.993   2.980   4.867
  301DIO    C2316832   8.074   3.094   4.929
  301DIO     O416833   8.118   3.059   5.060
  301DIO    C2416834   7.860   2.962   4.943
  301DIO    C2516835   7.770   2.849   4.894
  301DIO    C2616836   7.731   2.860   4.747
  301DIO     H116837   9.452   3.041   4.987
  301DIO     H216838   9.410   2.859   4.585
  301DIO     H316839   9.234   2.725   4.761
  301DIO     H416840   8.982   2.721   4.791
  301DIO     H516841   8.983   3.148   4.884
  301DIO     H616842   8.374   2.743   4.963
  301DIO     H716843   8.362   3.164   5.083
  301DIO     H816844   8.205   2.912   5.168
  301DIO     H916845   8.169   2.869   4.804
  301DIO    H1016846   8.029   2.768   4.833
  301DIO    H1116847   7.971   3.006   4.763
  301DIO    H1216848   8.013   3.184   4.938
  301DIO    H1316849   8.160   3.120   4.866
  301DIO    H1416850   7.880   2.944   5.050
  301DIO    H1516851   7.804   3.056   4.938
  301DIO    H1616852   7.817   2.751   4.911
  301DIO    H1716853   7.678   2.849   4.954
  301DIO    H1816854   7.687   2.958   4.726
  301DIO    H1916855   7.818   2.846   4.682
  301DIO    H2016856   7.658   2.784   4.721
  302DIO     F116857   1.687   4.325   0.128
  302DIO     C116858   1.609   4.245   0.053
  302DIO     C216859   1.465   4.250   0.069
  302DIO     C316860   1.376   4.162  -0.010
  302DIO     C416861   1.442   4.071  -0.108
  302DIO     C516862   1.586   4.068  -0.122
  302DIO     F216863   1.642   3.988  -0.214
  302DIO     C616864   1.670   4.155  -0.043
  302DIO     F316865   1.804   4.151  -0.056
  302DIO     C716866   1.230   4.164   0.006
  302DIO     C816867   1.153   4.039   0.027
  302DIO     C916868   1.008   4.042   0.042
  302DIO    C1016869   0.936   4.167   0.026
  302DIO    C1116870   1.008   4.292   0.013
  302DIO    C1216871   1.152   4.290   0.001
  302DIO     F416872   1.217   4.406  -0.017
  302DIO     O116873   0.803   4.165   0.065
  302DIO    C1316874   0.709   4.243  -0.001
  302DIO     O216875   0.708   4.299  -0.113
  302DIO    C1416876   0.580   4.247   0.069
  302DIO    C1516877   0.514   4.123   0.116
  302DIO     F516878   0.576   4.004   0.104
  302DIO    C1616879   0.383   4.123   0.179
  302DIO    C1716880   0.307   4.247   0.192
  302DIO    C1816881   0.376   4.372   0.162
  302DIO    C1916882   0.507   4.372   0.100
  302DIO     F616883   0.570   4.491   0.089
  302DIO    C2016884   0.166   4.248   0.246
  302DIO     O316885   0.097   4.124   0.228
  302DIO    C2116886   0.053   4.106   0.094
  302DIO    C2216887  -0.036   4.221   0.048
  302DIO    C2316888   0.045   4.349   0.069
  302DIO     O416889   0.089   4.361   0.204
  302DIO    C2416890  -0.169   4.229   0.127
  302DIO    C2516891  -0.259   4.106   0.118
  302DIO    C2616892  -0.298   4.068  -0.023
  302DIO     H116893   1.423   4.319   0.141
  302DIO     H216894   1.381   4.012  -0.175
  302DIO     H316895   1.204   3.945   0.036
  302DIO     H416896   0.953   3.952   0.065
  302DIO     H516897   0.954   4.385   0.007
  302DIO     H616898   0.345   4.030   0.219
  302DIO     H716899   0.333   4.468   0.190
  302DIO     H816900   0.176   4.259   0.355
  302DIO     H916901   0.140   4.096   0.027
  302DIO    H1016902   0.000   4.010   0.089
  302DIO    H1116903  -0.059   4.210  -0.058
  302DIO    H1216904  -0.016   4.437   0.046
  302DIO    H1316905   0.131   4.352   0.001
  302DIO    H1416906  -0.149   4.249   0.233
  302DIO    H1516907  -0.225   4.316   0.090
  302DIO    H1616908  -0.212   4.021   0.168
  302DIO    H1716909  -0.351   4.127   0.175
  302DIO    H1816910  -0.342   4.153  -0.077
  302DIO    H1916911  -0.211   4.032  -0.080
  302DIO    H2016912  -0.372   3.987  -0.022
  303DIO     F116913   6.565   7.293   6.149
  303DIO     C116914   6.487   7.186   6.123
  303DIO     C216915   6.343   7.198   6.135
  303DIO     C316916   6.254   7.083   6.109
  303DIO     C416917   6.320   6.956   6.068
  303DIO     C516918   6.464   6.947   6.057
  303DIO     F216919   6.519   6.831   6.016
  303DIO     C616920   6.548   7.061   6.084
  303DIO     F316921   6.681   7.051   6.074
  303DIO     C716922   6.108   7.093   6.122
  303DIO     C816923   6.031   6.994   6.201
  303DIO     C916924   5.886   7.004   6.213
  303DIO    C1016925   5.813   7.105   6.138
  303DIO    C1116926   5.886   7.208   6.066
  303DIO    C1216927   6.030   7.200   6.056
  303DIO     F416928   6.095   7.293   5.984
  303DIO     O116929   5.681   7.123   6.173
  303DIO    C1316930   5.587   7.159   6.077
  303DIO     O216931   5.586   7.152   5.951
  303DIO    C1416932   5.457   7.195   6.136
  303DIO    C1516933   5.391   7.111   6.238
  303DIO     F516934   5.454   7.001   6.286
  303DIO    C1616935   5.260   7.142   6.293
  303DIO    C1716936   5.185   7.256   6.243
  303DIO    C1816937   5.253   7.351   6.156
  303DIO    C1916938   5.385   7.320   6.102
  303DIO     F616939   5.447   7.418   6.034
  303DIO    C2016940   5.044   7.284   6.290
  303DIO     O316941   4.974   7.167   6.335
  303DIO    C2116942   4.930   7.085   6.227
  303DIO    C2216943   4.842   7.163   6.131
  303DIO    C2316944   4.922   7.285   6.086
  303DIO     O416945   4.967   7.361   6.198
  303DIO    C2416946   4.709   7.209   6.195
  303DIO    C2516947   4.618   7.097   6.248
  303DIO    C2616948   4.580   6.994   6.143
  303DIO     H116949   6.300   7.294   6.163
  303DIO     H216950   6.259   6.871   6.039
  303DIO     H316951   6.082   6.916   6.255
  303DIO     H416952   5.831   6.937   6.277
  303DIO     H516953   5.831   7.286   6.015
  303DIO     H616954   5.222   7.081   6.373
  303DIO     H716955   5.210   7.447   6.133
  303DIO     H816956   5.054   7.347   6.380
  303DIO     H916957   5.017   7.044   6.174
  303DIO    H1016958   4.878   6.999   6.269
  303DIO    H1116959   4.819   7.101   6.043
  303DIO    H1216960   4.861   7.350   6.023
  303DIO    H1316961   5.008   7.254   6.025
  303DIO    H1416962   4.729   7.278   6.278
  303DIO    H1516963   4.652   7.266   6.121
  303DIO    H1616964   4.665   7.047   6.333
  303DIO    H1716965   4.526   7.143   6.287
  303DIO    H1816966   4.536   7.042   6.055
  303DIO    H1916967   4.666   6.935   6.111
  303DIO    H2016968   4.506   6.925   6.185
  304DIO     F116969   5.235   0.694   9.127
  304DIO     C116970   5.158   0.664   9.232
  304DIO     C216971   5.013   0.676   9.221
  304DIO     C316972   4.925   0.646   9.335
  304DIO     C416973   4.990   0.600   9.460
  304DIO     C516974   5.134   0.589   9.469
  304DIO     F216975   5.190   0.543   9.583
  304DIO     C616976   5.218   0.620   9.356
  304DIO     F316977   5.352   0.610   9.366
  304DIO     C716978   4.778   0.659   9.326
  304DIO     C816979   4.701   0.734   9.427
  304DIO     C916980   4.556   0.746   9.418
  304DIO    C1016981   4.484   0.676   9.314
  304DIO    C1116982   4.556   0.607   9.209
  304DIO    C1216983   4.700   0.597   9.216
  304DIO     F416984   4.765   0.528   9.120
  304DIO     O116985   4.352   0.711   9.297
  304DIO    C1316986   4.257   0.617   9.258
  304DIO     O216987   4.256   0.491   9.260
  304DIO    C1416988   4.128   0.677   9.223
  304DIO    C1516989   4.062   0.776   9.312
  304DIO     F516990   4.124   0.819   9.423
  304DIO    C1616991   3.931   0.831   9.283
  304DIO    C1716992   3.855   0.786   9.167
  304DIO    C1816993   3.924   0.702   9.069
  304DIO    C1916994   4.056   0.648   9.098
  304DIO     F616995   4.118   0.583   8.997
  304DIO    C2016996   3.714   0.835   9.141
  304DIO     O316997   3.645   0.874   9.260
  304DIO    C2116998   3.601   0.764   9.338
  304DIO    C2216999   3.512   0.671   9.256
  304DIO    C2317000   3.593   0.630   9.132
  304DIO     O417001   3.637   0.745   9.061
  304DIO    C2417002   3.379   0.737   9.212
  304DIO    C2517003   3.289   0.785   9.326
  304DIO    C2617004   3.250   0.677   9.425
  304DIO     H117005   4.971   0.708   9.126
  304DIO     H217006   4.930   0.567   9.544
  304DIO     H317007   4.753   0.786   9.507
  304DIO     H417008   4.501   0.808   9.488
  304DIO     H517009   4.502   0.559   9.128
  304DIO     H617010   3.893   0.910   9.347
  304DIO     H717011   3.881   0.684   8.972
  304DIO     H817012   3.724   0.926   9.082
  304DIO     H917013   3.688   0.709   9.377
  304DIO    H1017014   3.548   0.803   9.425
  304DIO    H1117015   3.490   0.581   9.314
  304DIO    H1217016   3.532   0.570   9.064
  304DIO    H1317017   3.679   0.568   9.161
  304DIO    H1417018   3.399   0.822   9.146
  304DIO    H1517019   3.323   0.664   9.152
  304DIO    H1617020   3.336   0.869   9.379
  304DIO    H1717021   3.197   0.826   9.281
  304DIO    H1817022   3.206   0.590   9.374
  304DIO    H1917023   3.337   0.642   9.482
  304DIO    H2017024   3.177   0.715   9.496
  305DIO     F117025   4.150   4.495   4.503
  305DIO     C117026   4.073   4.605   4.492
  305DIO     C217027   3.928   4.590   4.485
  305DIO     C317028   3.840   4.707   4.471
  305DIO     C417029   3.905   4.840   4.467
  305DIO     C517030   4.049   4.853   4.474
  305DIO     F217031   4.105   4.975   4.474
  305DIO     C617032   4.133   4.736   4.487
  305DIO     F317033   4.267   4.749   4.493
  305DIO     C717034   3.693   4.694   4.462
  305DIO     C817035   3.616   4.760   4.355
  305DIO     C917036   3.471   4.747   4.347
  305DIO    C1017037   3.399   4.676   4.451
  305DIO    C1117038   3.471   4.604   4.553
  305DIO    C1217039   3.615   4.615   4.560
  305DIO     F417040   3.680   4.551   4.659
  305DIO     O117041   3.267   4.648   4.424
  305DIO    C1317042   3.172   4.646   4.526
  305DIO     O217043   3.171   4.694   4.643
  305DIO    C1417044   3.043   4.592   4.483
  305DIO    C1517045   2.977   4.637   4.359
  305DIO     F517046   3.039   4.725   4.277
  305DIO    C1617047   2.846   4.590   4.318
  305DIO    C1717048   2.770   4.499   4.403
  305DIO    C1817049   2.839   4.439   4.517
  305DIO    C1917050   2.971   4.486   4.557
  305DIO     F617051   3.033   4.416   4.654
  305DIO    C2017052   2.629   4.457   4.367
  305DIO     O317053   2.560   4.553   4.286
  305DIO    C2117054   2.516   4.666   4.360
  305DIO    C2217055   2.427   4.624   4.477
  305DIO    C2317056   2.508   4.524   4.560
  305DIO     O417057   2.552   4.415   4.480
  305DIO    C2417058   2.294   4.559   4.432
  305DIO    C2517059   2.204   4.647   4.345
  305DIO    C2617060   2.165   4.779   4.409
  305DIO     H117061   3.886   4.490   4.490
  305DIO     H217062   3.845   4.930   4.466
  305DIO     H317063   3.668   4.815   4.277
  305DIO     H417064   3.416   4.788   4.263
  305DIO     H517065   3.417   4.547   4.627
  305DIO     H617066   2.808   4.621   4.221
  305DIO     H717067   2.796   4.355   4.570
  305DIO     H817068   2.639   4.368   4.304
  305DIO     H917069   2.603   4.722   4.396
  305DIO    H1017070   2.463   4.733   4.292
  305DIO    H1117071   2.405   4.711   4.539
  305DIO    H1217072   2.447   4.483   4.641
  305DIO    H1317073   2.594   4.574   4.607
  305DIO    H1417074   2.314   4.466   4.377
  305DIO    H1517075   2.238   4.530   4.521
  305DIO    H1617076   2.251   4.666   4.248
  305DIO    H1717077   2.112   4.590   4.323
  305DIO    H1817078   2.121   4.763   4.508
  305DIO    H1917079   2.252   4.845   4.419
  305DIO    H2017080   2.092   4.831   4.347
  306DIO     F117081   6.922   0.058   7.610
  306DIO     C117082   6.844  -0.051   7.627
  306DIO     C217083   6.700  -0.035   7.633
  306DIO     C317084   6.611  -0.152   7.654
  306DIO     C417085   6.677  -0.284   7.665
  306DIO     C517086   6.821  -0.297   7.658
  306DIO     F217087   6.876  -0.420   7.665
  306DIO     C617088   6.905  -0.181   7.639
  306DIO     F317089   7.039  -0.195   7.634
  306DIO     C717090   6.465  -0.138   7.661
  306DIO     C817091   6.388  -0.198   7.772
  306DIO     C917092   6.243  -0.185   7.780
  306DIO    C1017093   6.170  -0.120   7.672
  306DIO    C1117094   6.243  -0.053   7.565
  306DIO    C1217095   6.387  -0.064   7.559
  306DIO     F417096   6.452  -0.006   7.456
  306DIO     O117097   6.038  -0.090   7.697
  306DIO    C1317098   5.944  -0.094   7.595
  306DIO     O217099   5.943  -0.149   7.481
  306DIO    C1417100   5.815  -0.037   7.635
  306DIO    C1517101   5.748  -0.076   7.762
  306DIO     F517102   5.811  -0.158   7.848
  306DIO    C1617103   5.618  -0.026   7.800
  306DIO    C1717104   5.542   0.060   7.710
  306DIO    C1817105   5.611   0.113   7.593
  306DIO    C1917106   5.742   0.064   7.555
  306DIO     F617107   5.805   0.129   7.454
  306DIO    C2017108   5.401   0.104   7.743
  306DIO     O317109   5.331   0.013   7.829
  306DIO    C2117110   5.288  -0.104   7.761
  306DIO    C2217111   5.199  -0.069   7.643
  306DIO    C2317112   5.280   0.026   7.554
  306DIO     O417113   5.324   0.139   7.628
  306DIO    C2417114   5.066  -0.002   7.684
  306DIO    C2517115   4.975  -0.084   7.776
  306DIO    C2617116   4.937  -0.220   7.719
  306DIO     H117117   6.657   0.064   7.622
  306DIO     H217118   6.616  -0.374   7.670
  306DIO     H317119   6.439  -0.249   7.853
  306DIO     H417120   6.188  -0.221   7.865
  306DIO     H517121   6.189  -0.001   7.488
  306DIO     H617122   5.579  -0.052   7.898
  306DIO     H717123   5.568   0.194   7.535
  306DIO     H817124   5.411   0.196   7.801
  306DIO     H917125   5.374  -0.163   7.729
  306DIO    H1017126   5.235  -0.167   7.834
  306DIO    H1117127   5.176  -0.160   7.586
  306DIO    H1217128   5.218   0.062   7.471
  306DIO    H1317129   5.366  -0.026   7.510
  306DIO    H1417130   5.086   0.094   7.734
  306DIO    H1517131   5.010   0.022   7.593
  306DIO    H1617132   5.023  -0.098   7.874
  306DIO    H1717133   4.884  -0.027   7.794
  306DIO    H1817134   4.893  -0.210   7.620
  306DIO    H1917135   5.023  -0.287   7.713
  306DIO    H2017136   4.863  -0.268   7.784
  307DIO     F117137   8.127   8.484   2.410
  307DIO     C117138   8.049   8.594   2.403
  307DIO     C217139   7.905   8.579   2.395
  307DIO     C317140   7.816   8.697   2.385
  307DIO     C417141   7.882   8.830   2.385
  307DIO     C517142   8.026   8.842   2.393
  307DIO     F217143   8.082   8.965   2.397
  307DIO     C617144   8.110   8.725   2.402
  307DIO     F317145   8.244   8.738   2.408
  307DIO     C717146   7.670   8.683   2.376
  307DIO     C817147   7.593   8.753   2.270
  307DIO     C917148   7.448   8.741   2.262
  307DIO    C1017149   7.376   8.667   2.363
  307DIO    C1117150   7.448   8.591   2.464
  307DIO    C1217151   7.592   8.601   2.471
  307DIO     F417152   7.657   8.534   2.568
  307DIO     O117153   7.243   8.639   2.336
  307DIO    C1317154   7.149   8.634   2.438
  307DIO     O217155   7.148   8.678   2.556
  307DIO    C1417156   7.020   8.581   2.393
  307DIO    C1517157   6.953   8.631   2.270
  307DIO     F517158   7.016   8.721   2.191
  307DIO    C1617159   6.823   8.585   2.228
  307DIO    C1717160   6.747   8.491   2.310
  307DIO    C1817161   6.816   8.427   2.422
  307DIO    C1917162   6.947   8.473   2.463
  307DIO     F617163   7.010   8.400   2.558
  307DIO    C2017164   6.606   8.450   2.273
  307DIO     O317165   6.536   8.548   2.195
  307DIO    C2117166   6.493   8.659   2.273
  307DIO    C2217167   6.404   8.613   2.388
  307DIO    C2317168   6.485   8.511   2.468
  307DIO     O417169   6.529   8.405   2.384
  307DIO    C2417170   6.271   8.550   2.341
  307DIO    C2517171   6.180   8.640   2.257
  307DIO    C2617172   6.142   8.770   2.325
  307DIO     H117173   7.863   8.479   2.397
  307DIO     H217174   7.821   8.920   2.388
  307DIO     H317175   7.644   8.811   2.195
  307DIO     H417176   7.393   8.785   2.180
  307DIO     H517177   7.394   8.531   2.536
  307DIO     H617178   6.785   8.619   2.132
  307DIO     H717179   6.773   8.342   2.472
  307DIO     H817180   6.616   8.363   2.207
  307DIO     H917181   6.579   8.714   2.311
  307DIO    H1017182   6.440   8.728   2.207
  307DIO    H1117183   6.381   8.699   2.453
  307DIO    H1217184   6.424   8.467   2.548
  307DIO    H1317185   6.571   8.559   2.517
  307DIO    H1417186   6.291   8.459   2.283
  307DIO    H1517187   6.215   8.518   2.429
  307DIO    H1617188   6.228   8.663   2.160
  307DIO    H1717189   6.089   8.585   2.233
  307DIO    H1817190   6.098   8.752   2.424
  307DIO    H1917191   6.229   8.836   2.338
  307DIO    H2017192   6.068   8.824   2.265
  308DIO     F117193   1.150   2.155   1.850
  308DIO     C117194   1.072   2.111   1.952
  308DIO     C217195   0.928   2.125   1.941
  308DIO     C317196   0.839   2.081   2.051
  308DIO     C417197   0.905   2.020   2.170
  308DIO     C517198   1.049   2.007   2.177
  308DIO     F217199   1.104   1.948   2.285
  308DIO     C617200   1.133   2.052   2.068
  308DIO     F317201   1.266   2.041   2.077
  308DIO     C717202   0.693   2.095   2.044
  308DIO     C817203   0.616   2.157   2.154
  308DIO     C917204   0.471   2.170   2.146
  308DIO    C1017205   0.398   2.113   2.034
  308DIO    C1117206   0.471   2.058   1.921
  308DIO    C1217207   0.615   2.047   1.927
  308DIO     F417208   0.680   1.991   1.823
  308DIO     O117209   0.266   2.150   2.022
  308DIO    C1317210   0.172   2.062   1.971
  308DIO     O217211   0.171   1.936   1.957
  308DIO    C1417212   0.042   2.126   1.944
  308DIO    C1517213  -0.024   2.212   2.044
  308DIO     F517214   0.039   2.242   2.160
  308DIO    C1617215  -0.155   2.271   2.023
  308DIO    C1717216  -0.230   2.241   1.902
  308DIO    C1817217  -0.162   2.170   1.794
  308DIO    C1917218  -0.030   2.112   1.816
  308DIO     F617219   0.032   2.061   1.708
  308DIO    C2017220  -0.371   2.292   1.883
  308DIO     O317221  -0.441   2.317   2.005
  308DIO    C2117222  -0.485   2.197   2.069
  308DIO    C2217223  -0.573   2.115   1.975
  308DIO    C2317224  -0.493   2.090   1.848
  308DIO     O417225  -0.448   2.213   1.791
  308DIO    C2417226  -0.706   2.186   1.941
  308DIO    C2517227  -0.797   2.220   2.059
  308DIO    C2617228  -0.835   2.100   2.144
  308DIO     H117229   0.885   2.169   1.852
  308DIO     H217230   0.844   1.977   2.249
  308DIO     H317231   0.667   2.198   2.239
  308DIO     H417232   0.416   2.223   2.223
  308DIO     H517233   0.416   2.021   1.835
  308DIO     H617234  -0.193   2.341   2.096
  308DIO     H717235  -0.205   2.164   1.695
  308DIO     H817236  -0.361   2.391   1.835
  308DIO     H917237  -0.398   2.138   2.100
  308DIO    H1017238  -0.537   2.225   2.160
  308DIO    H1117239  -0.596   2.019   2.022
  308DIO    H1217240  -0.554   2.039   1.773
  308DIO    H1317241  -0.407   2.026   1.868
  308DIO    H1417242  -0.686   2.279   1.886
  308DIO    H1517243  -0.763   2.122   1.872
  308DIO    H1617244  -0.750   2.296   2.123
  308DIO    H1717245  -0.889   2.266   2.020
  308DIO    H1817246  -0.879   2.021   2.083
  308DIO    H1917247  -0.749   2.059   2.197
  308DIO    H2017248  -0.909   2.129   2.219
  309DIO     F117249   7.350   2.992  -0.548
  309DIO     C117250   7.272   2.882  -0.547
  309DIO     C217251   7.128   2.897  -0.538
  309DIO     C317252   7.039   2.779  -0.534
  309DIO     C417253   7.105   2.646  -0.541
  309DIO     C517254   7.249   2.634  -0.549
  309DIO     F217255   7.304   2.512  -0.560
  309DIO     C617256   7.333   2.751  -0.553
  309DIO     F317257   7.466   2.739  -0.559
  309DIO     C717258   6.893   2.791  -0.524
  309DIO     C817259   6.816   2.716  -0.423
  309DIO     C917260   6.671   2.728  -0.414
  309DIO    C1017261   6.598   2.808  -0.511
  309DIO    C1117262   6.671   2.888  -0.608
  309DIO    C1217263   6.815   2.878  -0.615
  309DIO     F417264   6.880   2.950  -0.709
  309DIO     O117265   6.466   2.834  -0.482
  309DIO    C1317266   6.372   2.844  -0.584
  309DIO     O217267   6.371   2.806  -0.704
  309DIO    C1417268   6.243   2.895  -0.536
  309DIO    C1517269   6.176   2.839  -0.416
  309DIO     F517270   6.239   2.745  -0.342
  309DIO    C1617271   6.045   2.883  -0.371
  309DIO    C1717272   5.970   2.981  -0.448
  309DIO    C1817273   6.038   3.050  -0.557
  309DIO    C1917274   6.170   3.006  -0.601
  309DIO     F617275   6.233   3.084  -0.692
  309DIO    C2017276   5.829   3.019  -0.409
  309DIO     O317277   5.759   2.917  -0.337
  309DIO    C2117278   5.716   2.810  -0.420
  309DIO    C2217279   5.627   2.862  -0.533
  309DIO    C2317280   5.707   2.968  -0.608
  309DIO     O417281   5.752   3.070  -0.519
  309DIO    C2417282   5.494   2.923  -0.483
  309DIO    C2517283   5.403   2.828  -0.403
  309DIO    C2617284   5.365   2.702  -0.478
  309DIO     H117285   7.085   2.997  -0.535
  309DIO     H217286   7.044   2.556  -0.548
  309DIO     H317287   6.867   2.655  -0.350
  309DIO     H417288   6.616   2.680  -0.334
  309DIO     H517289   6.616   2.951  -0.677
  309DIO     H617290   6.007   2.844  -0.278
  309DIO     H717291   5.996   3.138  -0.603
  309DIO     H817292   5.839   3.103  -0.339
  309DIO     H917293   5.802   2.757  -0.461
  309DIO    H1017294   5.663   2.738  -0.358
  309DIO    H1117295   5.604   2.780  -0.602
  309DIO    H1217296   5.646   3.016  -0.685
  309DIO    H1317297   5.794   2.923  -0.659
  309DIO    H1417298   5.514   3.011  -0.420
  309DIO    H1517299   5.437   2.959  -0.569
  309DIO    H1617300   5.451   2.801  -0.308
  309DIO    H1717301   5.311   2.883  -0.377
  309DIO    H1817302   5.321   2.726  -0.576
  309DIO    H1917303   5.451   2.637  -0.494
  309DIO    H2017304   5.291   2.645  -0.421
  310DIO     F117305   9.535   7.864   8.508
  310DIO     C117306   9.457   7.770   8.566
  310DIO     C217307   9.313   7.787   8.565
  310DIO     C317308   9.224   7.687   8.629
  310DIO     C417309   9.290   7.569   8.691
  310DIO     C517310   9.434   7.555   8.690
  310DIO     F217311   9.490   7.444   8.743
  310DIO     C617312   9.518   7.654   8.627
  310DIO     F317313   9.652   7.640   8.628
  310DIO     C717314   9.078   7.703   8.631
  310DIO     C817315   9.001   7.690   8.757
  310DIO     C917316   8.856   7.705   8.759
  310DIO    C1017317   8.784   7.723   8.634
  310DIO    C1117318   8.856   7.744   8.510
  310DIO    C1217319   9.000   7.732   8.509
  310DIO     F417320   9.065   7.746   8.392
  310DIO     O117321   8.651   7.761   8.646
  310DIO    C1317322   8.557   7.718   8.553
  310DIO     O217323   8.556   7.624   8.469
  310DIO    C1417324   8.428   7.786   8.568
  310DIO    C1517325   8.361   7.799   8.700
  310DIO     F517326   8.424   7.756   8.812
  310DIO    C1617327   8.231   7.859   8.716
  310DIO    C1717328   8.155   7.904   8.600
  310DIO    C1817329   8.224   7.908   8.472
  310DIO    C1917330   8.355   7.849   8.456
  310DIO     F617331   8.418   7.869   8.338
  310DIO    C2017332   8.014   7.957   8.614
  310DIO     O317333   7.944   7.907   8.728
  310DIO    C2117334   7.901   7.772   8.711
  310DIO    C2217335   7.812   7.759   8.588
  310DIO    C2317336   7.893   7.813   8.469
  310DIO     O417337   7.937   7.946   8.494
  310DIO    C2417338   7.679   7.837   8.600
  310DIO    C2517339   7.588   7.796   8.717
  310DIO    C2617340   7.550   7.649   8.716
  310DIO     H117341   9.271   7.874   8.518
  310DIO     H217342   9.229   7.488   8.730
  310DIO     H317343   9.052   7.674   8.851
  310DIO     H417344   8.801   7.704   8.852
  310DIO     H517345   8.802   7.763   8.419
  310DIO     H617346   8.193   7.873   8.817
  310DIO     H717347   8.181   7.961   8.387
  310DIO     H817348   8.024   8.065   8.632
  310DIO     H917349   7.987   7.706   8.703
  310DIO    H1017350   7.848   7.742   8.802
  310DIO    H1117351   7.789   7.654   8.570
  310DIO    H1217352   7.832   7.814   8.379
  310DIO    H1317353   7.979   7.748   8.448
  310DIO    H1417354   7.699   7.945   8.609
  310DIO    H1517355   7.623   7.824   8.507
  310DIO    H1617356   7.636   7.822   8.812
  310DIO    H1717357   7.497   7.856   8.712
  310DIO    H1817358   7.506   7.620   8.620
  310DIO    H1917359   7.637   7.585   8.736
  310DIO    H2017360   7.476   7.630   8.795
  311DIO     F117361  10.449   3.063   1.769
  311DIO     C117362  10.371   3.078   1.660
  311DIO     C217363  10.227   3.068   1.673
  311DIO     C317364  10.138   3.082   1.556
  311DIO     C417365  10.204   3.110   1.426
  311DIO     C517366  10.348   3.120   1.415
  311DIO     F217367  10.403   3.149   1.296
  311DIO     C617368  10.432   3.105   1.532
  311DIO     F317369  10.565   3.113   1.520
  311DIO     C717370   9.992   3.070   1.567
  311DIO     C817371   9.915   2.982   1.477
  311DIO     C917372   9.770   2.971   1.487
  311DIO    C1017373   9.697   3.055   1.581
  311DIO    C1117374   9.770   3.137   1.676
  311DIO    C1217375   9.914   3.146   1.667
  311DIO     F417376   9.979   3.228   1.753
  311DIO     O117377   9.565   3.022   1.602
  311DIO    C1317378   9.471   3.121   1.628
  311DIO     O217379   9.470   3.246   1.609
  311DIO    C1417380   9.341   3.066   1.671
  311DIO    C1517381   9.275   2.956   1.597
  311DIO     F517382   9.338   2.898   1.493
  311DIO    C1617383   9.144   2.905   1.633
  311DIO    C1717384   9.069   2.966   1.742
  311DIO    C1817385   9.137   3.062   1.827
  311DIO    C1917386   9.269   3.112   1.791
  311DIO     F617387   9.331   3.190   1.882
  311DIO    C2017388   8.928   2.921   1.774
  311DIO     O317389   8.858   2.866   1.662
  311DIO    C2117390   8.814   2.965   1.569
  311DIO    C2217391   8.726   3.068   1.638
  311DIO    C2317392   8.806   3.125   1.755
  311DIO     O417393   8.851   3.021   1.841
  311DIO    C2417394   8.593   3.009   1.690
  311DIO    C2517395   8.502   2.945   1.584
  311DIO    C2617396   8.464   3.039   1.471
  311DIO     H117397  10.184   3.049   1.771
  311DIO     H217398  10.143   3.131   1.338
  311DIO     H317399   9.966   2.920   1.405
  311DIO     H417400   9.715   2.900   1.427
  311DIO     H517401   9.715   3.196   1.749
  311DIO     H617402   9.106   2.819   1.580
  311DIO     H717403   9.094   3.094   1.921
  311DIO     H817404   8.938   2.839   1.845
  311DIO     H917405   8.901   3.013   1.523
  311DIO    H1017406   8.762   2.914   1.488
  311DIO    H1117407   8.703   3.149   1.568
  311DIO    H1217408   8.745   3.194   1.814
  311DIO    H1317409   8.892   3.182   1.718
  311DIO    H1417410   8.613   2.933   1.767
  311DIO    H1517411   8.536   3.089   1.740
  311DIO    H1617412   8.549   2.855   1.543
  311DIO    H1717413   8.410   2.911   1.634
  311DIO    H1817414   8.420   3.131   1.510
  311DIO    H1917415   8.550   3.065   1.410
  311DIO    H2017416   8.390   2.991   1.406
  312DIO     F117417   4.942   0.821   1.200
  312DIO     C117418   4.864   0.819   1.090
  312DIO     C217419   4.720   0.811   1.105
  312DIO     C317420   4.631   0.806   0.986
  312DIO     C417421   4.697   0.813   0.854
  312DIO     C517422   4.841   0.821   0.841
  312DIO     F217423   4.896   0.831   0.719
  312DIO     C617424   4.925   0.825   0.959
  312DIO     F317425   5.058   0.831   0.946
  312DIO     C717426   4.485   0.797   0.999
  312DIO     C817427   4.408   0.695   0.925
  312DIO     C917428   4.263   0.685   0.937
  312DIO    C1017429   4.190   0.783   1.015
  312DIO    C1117430   4.263   0.880   1.096
  312DIO    C1217431   4.407   0.888   1.086
  312DIO     F417432   4.472   0.982   1.157
  312DIO     O117433   4.058   0.755   1.042
  312DIO    C1317434   3.964   0.856   1.051
  312DIO     O217435   3.963   0.976   1.013
  312DIO    C1417436   3.834   0.809   1.102
  312DIO    C1517437   3.768   0.689   1.047
  312DIO     F517438   3.831   0.614   0.953
  312DIO    C1617439   3.637   0.644   1.091
  312DIO    C1717440   3.562   0.722   1.189
  312DIO    C1817441   3.630   0.830   1.257
  312DIO    C1917442   3.762   0.874   1.214
  312DIO     F617443   3.824   0.965   1.291
  312DIO    C2017444   3.421   0.683   1.227
  312DIO     O317445   3.351   0.610   1.126
  312DIO    C2117446   3.307   0.693   1.019
  312DIO    C2217447   3.219   0.806   1.070
  312DIO    C2317448   3.299   0.881   1.176
  312DIO     O417449   3.344   0.792   1.278
  312DIO    C2417450   3.086   0.755   1.131
  312DIO    C2517451   2.995   0.675   1.037
  312DIO    C2617452   2.957   0.750   0.910
  312DIO     H117453   4.677   0.808   1.204
  312DIO     H217454   4.636   0.820   0.764
  312DIO     H317455   4.459   0.622   0.863
  312DIO     H417456   4.208   0.606   0.889
  312DIO     H517457   4.208   0.950   1.159
  312DIO     H617458   3.599   0.550   1.052
  312DIO     H717459   3.587   0.877   1.345
  312DIO     H817460   3.431   0.613   1.311
  312DIO     H917461   3.394   0.733   0.965
  312DIO    H1017462   3.255   0.630   0.947
  312DIO    H1117463   3.196   0.874   0.987
  312DIO    H1217464   3.238   0.958   1.223
  312DIO    H1317465   3.385   0.931   1.130
  312DIO    H1417466   3.106   0.693   1.219
  312DIO    H1517467   3.029   0.842   1.167
  312DIO    H1617468   3.042   0.580   1.010
  312DIO    H1717469   2.903   0.650   1.091
  312DIO    H1817470   2.913   0.848   0.933
  312DIO    H1917471   3.043   0.766   0.845
  312DIO    H2017472   2.883   0.692   0.853
  313DIO     F117473   6.154   6.209   0.137
  313DIO     C117474   6.076   6.100   0.122
  313DIO     C217475   5.932   6.113   0.133
  313DIO     C317476   5.843   5.995   0.120
  313DIO     C417477   5.909   5.865   0.094
  313DIO     C517478   6.053   5.854   0.084
  313DIO     F217479   6.108   5.735   0.056
  313DIO     C617480   6.137   5.971   0.098
  313DIO     F317481   6.270   5.960   0.089
  313DIO     C717482   5.697   6.007   0.131
  313DIO     C817483   5.620   5.918   0.221
  313DIO     C917484   5.475   5.929   0.232
  313DIO    C1017485   5.402   6.021   0.147
  313DIO    C1117486   5.475   6.115   0.063
  313DIO    C1217487   5.619   6.106   0.054
  313DIO     F417488   5.684   6.190  -0.028
  313DIO     O117489   5.270   6.043   0.179
  313DIO    C1317490   5.176   6.067   0.080
  313DIO     O217491   5.175   6.047  -0.044
  313DIO    C1417492   5.046   6.111   0.135
  313DIO    C1517493   4.980   6.038   0.245
  313DIO     F517494   5.043   5.935   0.305
  313DIO    C1617495   4.849   6.075   0.296
  313DIO    C1717496   4.774   6.183   0.234
  313DIO    C1817497   4.842   6.267   0.136
  313DIO    C1917498   4.974   6.231   0.087
  313DIO     F617499   5.036   6.321   0.008
  313DIO    C2017500   4.633   6.216   0.278
  313DIO     O317501   4.563   6.104   0.335
  313DIO    C2117502   4.519   6.011   0.237
  313DIO    C2217503   4.431   6.078   0.133
  313DIO    C2317504   4.511   6.194   0.074
  313DIO     O417505   4.556   6.282   0.177
  313DIO    C2417506   4.298   6.131   0.192
  313DIO    C2517507   4.207   6.026   0.257
  313DIO    C2617508   4.169   5.912   0.164
  313DIO     H117509   5.889   6.211   0.150
  313DIO     H217510   5.848   5.777   0.074
  313DIO     H317511   5.671   5.847   0.284
  313DIO     H417512   5.420   5.869   0.304
  313DIO     H517513   5.420   6.187   0.004
  313DIO     H617514   4.811   6.023   0.383
  313DIO     H717515   4.799   6.361   0.103
  313DIO     H817516   4.643   6.288   0.359
  313DIO     H917517   4.606   5.964   0.189
  313DIO    H1017518   4.467   5.930   0.289
  313DIO    H1117519   4.408   6.007   0.053
  313DIO    H1217520   4.450   6.252   0.005
  313DIO    H1317521   4.597   6.156   0.017
  313DIO    H1417522   4.318   6.209   0.266
  313DIO    H1517523   4.241   6.179   0.111
  313DIO    H1617524   4.254   5.985   0.347
  313DIO    H1717525   4.115   6.076   0.290
  313DIO    H1817526   4.125   5.949   0.071
  313DIO    H1917527   4.255   5.850   0.139
  313DIO    H2017528   4.095   5.847   0.213
  314DIO     F117529   1.359   1.152   3.314
  314DIO     C117530   1.282   1.258   3.341
  314DIO     C217531   1.138   1.246   3.329
  314DIO     C317532   1.049   1.362   3.355
  314DIO     C417533   1.114   1.488   3.397
  314DIO     C517534   1.259   1.498   3.408
  314DIO     F217535   1.314   1.613   3.450
  314DIO     C617536   1.342   1.383   3.381
  314DIO     F317537   1.476   1.394   3.390
  314DIO     C717538   0.903   1.352   3.343
  314DIO     C817539   0.825   1.451   3.264
  314DIO     C917540   0.681   1.441   3.252
  314DIO    C1017541   0.608   1.340   3.326
  314DIO    C1117542   0.681   1.237   3.398
  314DIO    C1217543   0.825   1.245   3.408
  314DIO     F417544   0.890   1.151   3.480
  314DIO     O117545   0.476   1.322   3.291
  314DIO    C1317546   0.381   1.286   3.387
  314DIO     O217547   0.381   1.291   3.513
  314DIO    C1417548   0.252   1.249   3.328
  314DIO    C1517549   0.186   1.334   3.226
  314DIO     F517550   0.249   1.444   3.179
  314DIO    C1617551   0.055   1.303   3.172
  314DIO    C1717552  -0.021   1.189   3.221
  314DIO    C1817553   0.048   1.094   3.308
  314DIO    C1917554   0.180   1.124   3.361
  314DIO     F617555   0.242   1.026   3.429
  314DIO    C2017556  -0.161   1.162   3.173
  314DIO     O317557  -0.231   1.279   3.129
  314DIO    C2117558  -0.275   1.360   3.238
  314DIO    C2217559  -0.364   1.281   3.333
  314DIO    C2317560  -0.283   1.160   3.378
  314DIO     O417561  -0.239   1.084   3.265
  314DIO    C2417562  -0.496   1.236   3.269
  314DIO    C2517563  -0.587   1.348   3.216
  314DIO    C2617564  -0.625   1.450   3.322
  314DIO     H117565   1.095   1.151   3.300
  314DIO     H217566   1.054   1.573   3.427
  314DIO     H317567   0.877   1.529   3.210
  314DIO     H417568   0.626   1.508   3.188
  314DIO     H517569   0.626   1.158   3.449
  314DIO     H617570   0.017   1.365   3.091
  314DIO     H717571   0.005   0.997   3.330
  314DIO     H817572  -0.152   1.099   3.084
  314DIO     H917573  -0.188   1.401   3.291
  314DIO    H1017574  -0.327   1.446   3.196
  314DIO    H1117575  -0.386   1.343   3.421
  314DIO    H1217576  -0.344   1.094   3.440
  314DIO    H1317577  -0.197   1.190   3.439
  314DIO    H1417578  -0.476   1.167   3.186
  314DIO    H1517579  -0.553   1.178   3.343
  314DIO    H1617580  -0.540   1.398   3.131
  314DIO    H1717581  -0.679   1.302   3.177
  314DIO    H1817582  -0.669   1.402   3.409
  314DIO    H1917583  -0.539   1.509   3.354
  314DIO    H2017584  -0.699   1.520   3.281
  315DIO     F117585   1.210   0.450   4.718
  315DIO     C117586   1.132   0.501   4.815
  315DIO     C217587   0.988   0.502   4.798
  315DIO     C317588   0.899   0.559   4.902
  315DIO     C417589   0.965   0.613   5.023
  315DIO     C517590   1.109   0.611   5.038
  315DIO     F217591   1.164   0.657   5.151
  315DIO     C617592   1.193   0.555   4.934
  315DIO     F317593   1.326   0.555   4.949
  315DIO     C717594   0.753   0.562   4.886
  315DIO     C817595   0.676   0.687   4.907
  315DIO     C917596   0.531   0.689   4.892
  315DIO    C1017597   0.458   0.567   4.865
  315DIO    C1117598   0.531   0.444   4.837
  315DIO    C1217599   0.675   0.442   4.849
  315DIO     F417600   0.740   0.326   4.828
  315DIO     O117601   0.326   0.580   4.829
  315DIO    C1317602   0.232   0.485   4.866
  315DIO     O217603   0.231   0.395   4.954
  315DIO    C1417604   0.103   0.505   4.799
  315DIO    C1517605   0.036   0.637   4.795
  315DIO     F517606   0.099   0.746   4.845
  315DIO    C1617607  -0.095   0.657   4.735
  315DIO    C1717608  -0.170   0.544   4.683
  315DIO    C1817609  -0.102   0.416   4.670
  315DIO    C1917610   0.030   0.397   4.729
  315DIO     F617611   0.093   0.280   4.701
  315DIO    C2017612  -0.311   0.561   4.631
  315DIO     O317613  -0.381   0.672   4.689
  315DIO    C2117614  -0.424   0.646   4.822
  315DIO    C2217615  -0.513   0.522   4.827
  315DIO    C2317616  -0.433   0.408   4.766
  315DIO     O417617  -0.388   0.441   4.635
  315DIO    C2417618  -0.646   0.540   4.750
  315DIO    C2517619  -0.737   0.654   4.798
  315DIO    C2617620  -0.775   0.644   4.945
  315DIO     H117621   0.945   0.460   4.708
  315DIO     H217622   0.904   0.648   5.106
  315DIO     H317623   0.727   0.779   4.928
  315DIO     H417624   0.476   0.782   4.899
  315DIO     H517625   0.476   0.354   4.812
  315DIO     H617626  -0.133   0.758   4.727
  315DIO     H717627  -0.144   0.335   4.613
  315DIO     H817628  -0.301   0.586   4.524
  315DIO     H917629  -0.338   0.634   4.887
  315DIO    H1017630  -0.477   0.735   4.858
  315DIO    H1117631  -0.536   0.498   4.931
  315DIO    H1217632  -0.494   0.317   4.759
  315DIO    H1317633  -0.346   0.383   4.829
  315DIO    H1417634  -0.626   0.555   4.643
  315DIO    H1517635  -0.703   0.446   4.757
  315DIO    H1617636  -0.689   0.751   4.779
  315DIO    H1717637  -0.829   0.652   4.738
  315DIO    H1817638  -0.819   0.546   4.968
  315DIO    H1917639  -0.689   0.659   5.010
  315DIO    H2017640  -0.849   0.721   4.969
  316DIO     F117641   8.664   1.937   7.141
  316DIO     C117642   8.586   1.857   7.065
  316DIO     C217643   8.442   1.862   7.082
  316DIO     C317644   8.353   1.774   7.002
  316DIO     C417645   8.419   1.684   6.904
  316DIO     C517646   8.563   1.682   6.890
  316DIO     F217647   8.618   1.602   6.796
  316DIO     C617648   8.647   1.768   6.969
  316DIO     F317649   8.780   1.764   6.956
  316DIO     C717650   8.207   1.777   7.018
  316DIO     C817651   8.130   1.652   7.038
  316DIO     C917652   7.985   1.654   7.053
  316DIO    C1017653   7.912   1.779   7.038
  316DIO    C1117654   7.985   1.904   7.026
  316DIO    C1217655   8.129   1.902   7.014
  316DIO     F417656   8.194   2.019   6.997
  316DIO     O117657   7.780   1.777   7.077
  316DIO    C1317658   7.686   1.856   7.012
  316DIO     O217659   7.685   1.913   6.900
  316DIO    C1417660   7.556   1.859   7.082
  316DIO    C1517661   7.490   1.735   7.128
  316DIO     F517662   7.553   1.616   7.115
  316DIO    C1617663   7.359   1.735   7.191
  316DIO    C1717664   7.284   1.859   7.204
  316DIO    C1817665   7.352   1.984   7.175
  316DIO    C1917666   7.484   1.984   7.114
  316DIO     F617667   7.546   2.103   7.103
  316DIO    C2017668   7.143   1.859   7.259
  316DIO     O317669   7.073   1.735   7.240
  316DIO    C2117670   7.029   1.717   7.105
  316DIO    C2217671   6.941   1.833   7.061
  316DIO    C2317672   7.021   1.961   7.082
  316DIO     O417673   7.066   1.972   7.217
  316DIO    C2417674   6.808   1.841   7.139
  316DIO    C2517675   6.717   1.718   7.130
  316DIO    C2617676   6.679   1.680   6.988
  316DIO     H117677   8.399   1.931   7.154
  316DIO     H217678   8.358   1.625   6.836
  316DIO     H317679   8.181   1.557   7.047
  316DIO     H417680   7.930   1.564   7.076
  316DIO     H517681   7.930   1.997   7.021
  316DIO     H617682   7.321   1.641   7.230
  316DIO     H717683   7.309   2.079   7.204
  316DIO     H817684   7.153   1.869   7.368
  316DIO     H917685   7.116   1.708   7.039
  316DIO    H1017686   6.977   1.622   7.100
  316DIO    H1117687   6.918   1.823   6.954
  316DIO    H1217688   6.960   2.049   7.060
  316DIO    H1317689   7.107   1.965   7.014
  316DIO    H1417690   6.828   1.861   7.246
  316DIO    H1517691   6.751   1.928   7.103
  316DIO    H1617692   6.764   1.632   7.179
  316DIO    H1717693   6.625   1.739   7.187
  316DIO    H1817694   6.635   1.766   6.935
  316DIO    H1917695   6.765   1.645   6.931
  316DIO    H2017696   6.605   1.600   6.989
  317DIO     F117697   1.221   2.906   3.851
  317DIO     C117698   1.144   2.828   3.774
  317DIO     C217699   1.000   2.833   3.790
  317DIO     C317700   0.911   2.747   3.709
  317DIO     C417701   0.976   2.659   3.609
  317DIO     C517702   1.121   2.656   3.595
  317DIO     F217703   1.176   2.578   3.500
  317DIO     C617704   1.204   2.741   3.676
  317DIO     F317705   1.338   2.737   3.663
  317DIO     C717706   0.764   2.749   3.725
  317DIO     C817707   0.687   2.624   3.743
  317DIO     C917708   0.543   2.626   3.758
  317DIO    C1017709   0.470   2.751   3.746
  317DIO    C1117710   0.543   2.876   3.736
  317DIO    C1217711   0.687   2.874   3.723
  317DIO     F417712   0.752   2.992   3.709
  317DIO     O117713   0.338   2.748   3.785
  317DIO    C1317714   0.243   2.828   3.721
  317DIO     O217715   0.242   2.887   3.609
  317DIO    C1417716   0.114   2.830   3.790
  317DIO    C1517717   0.048   2.705   3.834
  317DIO     F517718   0.111   2.586   3.819
  317DIO    C1617719  -0.083   2.704   3.897
  317DIO    C1717720  -0.159   2.827   3.913
  317DIO    C1817721  -0.090   2.953   3.886
  317DIO    C1917722   0.042   2.954   3.825
  317DIO     F617723   0.104   3.073   3.816
  317DIO    C2017724  -0.299   2.826   3.968
  317DIO     O317725  -0.369   2.703   3.946
  317DIO    C2117726  -0.413   2.688   3.811
  317DIO    C2217727  -0.502   2.804   3.769
  317DIO    C2317728  -0.421   2.932   3.792
  317DIO     O417729  -0.377   2.940   3.928
  317DIO    C2417730  -0.634   2.811   3.848
  317DIO    C2517731  -0.725   2.688   3.836
  317DIO    C2617732  -0.764   2.653   3.693
  317DIO     H117733   0.957   2.900   3.864
  317DIO     H217734   0.916   2.601   3.540
  317DIO     H317735   0.739   2.529   3.750
  317DIO     H417736   0.488   2.535   3.779
  317DIO     H517737   0.488   2.969   3.732
  317DIO     H617738  -0.121   2.610   3.935
  317DIO     H717739  -0.133   3.048   3.917
  317DIO     H817740  -0.290   2.835   4.077
  317DIO     H917741  -0.326   2.680   3.745
  317DIO    H1017742  -0.466   2.592   3.804
  317DIO    H1117743  -0.524   2.796   3.662
  317DIO    H1217744  -0.482   3.021   3.772
  317DIO    H1317745  -0.335   2.937   3.725
  317DIO    H1417746  -0.615   2.828   3.954
  317DIO    H1517747  -0.691   2.898   3.813
  317DIO    H1617748  -0.678   2.601   3.884
  317DIO    H1717749  -0.817   2.708   3.893
  317DIO    H1817750  -0.807   2.739   3.642
  317DIO    H1917751  -0.677   2.619   3.636
  317DIO    H2017752  -0.837   2.572   3.693
  318DIO     F117753  10.529   7.944   0.820
  318DIO     C117754  10.451   8.033   0.755
  318DIO     C217755  10.307   8.016   0.757
  318DIO     C317756  10.218   8.110   0.685
  318DIO     C417757  10.284   8.222   0.613
  318DIO     C517758  10.428   8.236   0.613
  318DIO     F217759  10.483   8.342   0.550
  318DIO     C617760  10.512   8.143   0.684
  318DIO     F317761  10.646   8.157   0.682
  318DIO     C717762  10.072   8.093   0.684
  318DIO     C817763   9.995   8.095   0.558
  318DIO     C917764   9.850   8.080   0.557
  318DIO    C1017765   9.777   8.073   0.683
  318DIO    C1117766   9.850   8.063   0.808
  318DIO    C1217767   9.994   8.076   0.808
  318DIO     F417768  10.059   8.072   0.927
  318DIO     O117769   9.645   8.035   0.675
  318DIO    C1317770   9.551   8.085   0.763
  318DIO     O217771   9.550   8.186   0.839
  318DIO    C1417772   9.422   8.016   0.754
  318DIO    C1517773   9.355   7.992   0.624
  318DIO     F517774   9.418   8.025   0.509
  318DIO    C1617775   9.225   7.930   0.613
  318DIO    C1717776   9.149   7.896   0.733
  318DIO    C1817777   9.218   7.902   0.861
  318DIO    C1917778   9.349   7.963   0.871
  318DIO     F617779   9.412   7.953   0.991
  318DIO    C2017780   9.008   7.842   0.723
  318DIO     O317781   8.938   7.882   0.605
  318DIO    C2117782   8.895   8.018   0.611
  318DIO    C2217783   8.806   8.041   0.732
  318DIO    C2317784   8.887   7.998   0.855
  318DIO     O417785   8.931   7.863   0.842
  318DIO    C2417786   8.673   7.962   0.727
  318DIO    C2517787   8.582   7.993   0.607
  318DIO    C2617788   8.544   8.140   0.595
  318DIO     H117789  10.264   7.933   0.812
  318DIO     H217790  10.223   8.299   0.567
  318DIO     H317791  10.046   8.103   0.463
  318DIO     H417792   9.795   8.073   0.465
  318DIO     H517793   9.796   8.052   0.901
  318DIO     H617794   9.186   7.908   0.514
  318DIO     H717795   9.175   7.858   0.950
  318DIO     H817796   9.018   7.733   0.715
  318DIO     H917797   8.981   8.084   0.613
  318DIO    H1017798   8.842   8.040   0.518
  318DIO    H1117799   8.783   8.148   0.741
  318DIO    H1217800   8.825   8.004   0.945
  318DIO    H1317801   8.973   8.064   0.870
  318DIO    H1417802   8.693   7.854   0.727
  318DIO    H1517803   8.617   7.983   0.818
  318DIO    H1617804   8.630   7.960   0.514
  318DIO    H1717805   8.491   7.934   0.617
  318DIO    H1817806   8.500   8.177   0.688
  318DIO    H1917807   8.630   8.202   0.570
  318DIO    H2017808   8.470   8.152   0.515
  319DIO     F117809   4.712   5.079   8.127
  319DIO     C117810   4.634   5.185   8.098
  319DIO     C217811   4.490   5.169   8.093
  319DIO     C317812   4.401   5.282   8.059
  319DIO     C417813   4.467   5.412   8.032
  319DIO     C517814   4.611   5.426   8.038
  319DIO     F217815   4.666   5.547   8.017
  319DIO     C617816   4.695   5.313   8.070
  319DIO     F317817   4.828   5.327   8.074
  319DIO     C717818   4.255   5.267   8.053
  319DIO     C817819   4.178   5.314   7.936
  319DIO     C917820   4.033   5.300   7.930
  319DIO    C1017821   3.960   5.248   8.044
  319DIO    C1117822   4.033   5.194   8.158
  319DIO    C1217823   4.177   5.206   8.163
  319DIO     F417824   4.242   5.160   8.272
  319DIO     O117825   3.828   5.216   8.023
  319DIO    C1317826   3.734   5.231   8.124
  319DIO     O217827   3.733   5.299   8.231
  319DIO    C1417828   3.604   5.170   8.091
  319DIO    C1517829   3.538   5.194   7.961
  319DIO     F517830   3.601   5.266   7.865
  319DIO    C1617831   3.407   5.140   7.928
  319DIO    C1717832   3.332   5.065   8.028
  319DIO    C1817833   3.400   5.026   8.150
  319DIO    C1917834   3.532   5.079   8.181
  319DIO     F617835   3.594   5.026   8.289
  319DIO    C2017836   3.191   5.018   7.999
  319DIO     O317837   3.121   5.098   7.904
  319DIO    C2117838   3.077   5.223   7.957
  319DIO    C2217839   2.989   5.201   8.079
  319DIO    C2317840   3.069   5.117   8.178
  319DIO     O417841   3.114   4.996   8.118
  319DIO    C2417842   2.856   5.130   8.046
  319DIO    C2517843   2.765   5.201   7.945
  319DIO    C2617844   2.727   5.342   7.986
  319DIO     H117845   4.447   5.072   8.115
  319DIO     H217846   4.406   5.501   8.017
  319DIO     H317847   4.229   5.355   7.850
  319DIO     H417848   3.978   5.327   7.841
  319DIO     H517849   3.978   5.151   8.241
  319DIO     H617850   3.369   5.154   7.828
  319DIO     H717851   3.357   4.952   8.217
  319DIO     H817852   3.201   4.919   7.953
  319DIO     H917853   3.164   5.284   7.983
  319DIO    H1017854   3.025   5.277   7.878
  319DIO    H1117855   2.966   5.298   8.126
  319DIO    H1217856   3.008   5.091   8.265
  319DIO    H1317857   3.155   5.174   8.216
  319DIO    H1417858   2.876   5.029   8.008
  319DIO    H1517859   2.799   5.116   8.139
  319DIO    H1617860   2.812   5.203   7.846
  319DIO    H1717861   2.673   5.142   7.934
  319DIO    H1817862   2.683   5.344   8.086
  319DIO    H1917863   2.813   5.409   7.985
  319DIO    H2017864   2.653   5.383   7.916
  320DIO     F117865   7.894   5.315   4.459
  320DIO     C117866   7.817   5.409   4.402
  320DIO     C217867   7.672   5.392   4.402
  320DIO     C317868   7.584   5.491   4.338
  320DIO     C417869   7.649   5.609   4.277
  320DIO     C517870   7.793   5.624   4.278
  320DIO     F217871   7.849   5.734   4.225
  320DIO     C617872   7.877   5.524   4.341
  320DIO     F317873   8.011   5.538   4.340
  320DIO     C717874   7.437   5.475   4.337
  320DIO     C817875   7.360   5.488   4.211
  320DIO     C917876   7.215   5.473   4.209
  320DIO    C1017877   7.143   5.455   4.333
  320DIO    C1117878   7.215   5.434   4.458
  320DIO    C1217879   7.359   5.447   4.459
  320DIO     F417880   7.424   5.433   4.576
  320DIO     O117881   7.011   5.417   4.322
  320DIO    C1317882   6.916   5.460   4.415
  320DIO     O217883   6.915   5.554   4.499
  320DIO    C1417884   6.787   5.392   4.399
  320DIO    C1517885   6.721   5.380   4.268
  320DIO     F517886   6.783   5.422   4.156
  320DIO    C1617887   6.590   5.319   4.252
  320DIO    C1717888   6.514   5.274   4.368
  320DIO    C1817889   6.583   5.270   4.496
  320DIO    C1917890   6.715   5.329   4.512
  320DIO     F617891   6.777   5.309   4.630
  320DIO    C2017892   6.373   5.221   4.354
  320DIO     O317893   6.304   5.272   4.239
  320DIO    C2117894   6.260   5.406   4.257
  320DIO    C2217895   6.171   5.419   4.380
  320DIO    C2317896   6.252   5.366   4.499
  320DIO     O417897   6.296   5.233   4.474
  320DIO    C2417898   6.038   5.341   4.368
  320DIO    C2517899   5.948   5.382   4.251
  320DIO    C2617900   5.909   5.529   4.251
  320DIO     H117901   7.630   5.304   4.450
  320DIO     H217902   7.589   5.690   4.237
  320DIO     H317903   7.412   5.504   4.117
  320DIO     H417904   7.160   5.474   4.116
  320DIO     H517905   7.161   5.415   4.549
  320DIO     H617906   6.552   5.305   4.151
  320DIO     H717907   6.540   5.218   4.581
  320DIO     H817908   6.383   5.113   4.336
  320DIO     H917909   6.347   5.472   4.265
  320DIO    H1017910   6.207   5.436   4.166
  320DIO    H1117911   6.149   5.525   4.398
  320DIO    H1217912   6.191   5.364   4.589
  320DIO    H1317913   6.338   5.430   4.519
  320DIO    H1417914   6.058   5.233   4.359
  320DIO    H1517915   5.982   5.354   4.461
  320DIO    H1617916   5.995   5.356   4.155
  320DIO    H1717917   5.856   5.322   4.256
  320DIO    H1817918   5.865   5.558   4.347
  320DIO    H1917919   5.996   5.593   4.232
  320DIO    H2017920   5.836   5.548   4.173
  321DIO     F117921   7.176   3.333   5.791
  321DIO     C117922   7.099   3.223   5.796
  321DIO     C217923   6.955   3.238   5.804
  321DIO     C317924   6.866   3.120   5.812
  321DIO     C417925   6.931   2.987   5.809
  321DIO     C517926   7.076   2.975   5.801
  321DIO     F217927   7.131   2.852   5.794
  321DIO     C617928   7.159   3.092   5.794
  321DIO     F317929   7.293   3.079   5.788
  321DIO     C717930   6.719   3.133   5.821
  321DIO     C817931   6.642   3.061   5.925
  321DIO     C917932   6.498   3.073   5.934
  321DIO    C1017933   6.425   3.149   5.834
  321DIO    C1117934   6.498   3.227   5.735
  321DIO    C1217935   6.642   3.217   5.728
  321DIO     F417936   6.707   3.286   5.632
  321DIO     O117937   6.293   3.177   5.862
  321DIO    C1317938   6.198   3.184   5.760
  321DIO     O217939   6.197   3.142   5.641
  321DIO    C1417940   6.069   3.236   5.806
  321DIO    C1517941   6.003   3.183   5.928
  321DIO     F517942   6.066   3.092   6.005
  321DIO    C1617943   5.872   3.228   5.971
  321DIO    C1717944   5.796   3.324   5.891
  321DIO    C1817945   5.865   3.390   5.781
  321DIO    C1917946   5.997   3.346   5.738
  321DIO     F617947   6.059   3.421   5.645
  321DIO    C2017948   5.656   3.364   5.929
  321DIO     O317949   5.586   3.264   6.005
  321DIO    C2117950   5.542   3.155   5.924
  321DIO    C2217951   5.453   3.203   5.810
  321DIO    C2317952   5.534   3.307   5.733
  321DIO     O417953   5.578   3.412   5.819
  321DIO    C2417954   5.321   3.265   5.859
  321DIO    C2517955   5.230   3.173   5.941
  321DIO    C2617956   5.191   3.045   5.870
  321DIO     H117957   6.912   3.338   5.805
  321DIO     H217958   6.871   2.897   5.804
  321DIO     H317959   6.694   3.002   5.999
  321DIO     H417960   6.443   3.027   6.015
  321DIO     H517961   6.443   3.288   5.664
  321DIO     H617962   5.834   3.192   6.066
  321DIO     H717963   5.822   3.477   5.732
  321DIO     H817964   5.665   3.449   5.997
  321DIO     H917965   5.629   3.101   5.885
  321DIO    H1017966   5.489   3.085   5.989
  321DIO    H1117967   5.431   3.119   5.744
  321DIO    H1217968   5.473   3.353   5.654
  321DIO    H1317969   5.620   3.261   5.683
  321DIO    H1417970   5.340   3.355   5.919
  321DIO    H1517971   5.264   3.299   5.771
  321DIO    H1617972   5.277   3.149   6.037
  321DIO    H1717973   5.138   3.228   5.966
  321DIO    H1817974   5.148   3.066   5.772
  321DIO    H1917975   5.278   2.979   5.856
  321DIO    H2017976   5.118   2.990   5.929
  322DIO     F117977   1.983   8.374   1.707
  322DIO     C117978   1.906   8.365   1.597
  322DIO     C217979   1.762   8.358   1.613
  322DIO     C317980   1.673   8.345   1.495
  322DIO     C417981   1.738   8.343   1.362
  322DIO     C517982   1.883   8.350   1.349
  322DIO     F217983   1.938   8.352   1.227
  322DIO     C617984   1.966   8.362   1.466
  322DIO     F317985   2.100   8.368   1.453
  322DIO     C717986   1.526   8.336   1.508
  322DIO     C817987   1.449   8.230   1.441
  322DIO     C917988   1.305   8.221   1.453
  322DIO    C1017989   1.232   8.324   1.525
  322DIO    C1117990   1.304   8.426   1.599
  322DIO    C1217991   1.449   8.433   1.589
  322DIO     F417992   1.513   8.531   1.654
  322DIO     O117993   1.100   8.297   1.554
  322DIO    C1317994   1.005   8.400   1.557
  322DIO     O217995   1.004   8.517   1.510
  322DIO    C1417996   0.876   8.355   1.611
  322DIO    C1517997   0.810   8.232   1.563
  322DIO     F517998   0.872   8.151   1.475
  322DIO    C1617999   0.679   8.190   1.610
  322DIO    C1718000   0.603   8.274   1.702
  322DIO    C1818001   0.672   8.387   1.764
  322DIO    C1918002   0.804   8.428   1.718
  322DIO     F618003   0.866   8.524   1.789
  322DIO    C2018004   0.463   8.238   1.744
  322DIO     O318005   0.393   8.158   1.647
  322DIO    C2118006   0.349   8.234   1.535
  322DIO    C2218007   0.260   8.350   1.578
  322DIO    C2318008   0.341   8.432   1.679
  322DIO     O418009   0.385   8.350   1.787
  322DIO    C2418010   0.127   8.304   1.642
  322DIO    C2518011   0.037   8.218   1.554
  322DIO    C2618012  -0.002   8.284   1.422
  322DIO     H118013   1.719   8.361   1.712
  322DIO     H218014   1.678   8.344   1.272
  322DIO     H318015   1.501   8.153   1.384
  322DIO     H418016   1.249   8.139   1.411
  322DIO     H518017   1.250   8.499   1.657
  322DIO     H618018   0.641   8.094   1.578
  322DIO     H718019   0.629   8.439   1.848
  322DIO     H818020   0.472   8.173   1.832
  322DIO     H918021   0.436   8.271   1.479
  322DIO    H1018022   0.296   8.166   1.467
  322DIO    H1118023   0.238   8.413   1.492
  322DIO    H1218024   0.280   8.512   1.721
  322DIO    H1318025   0.427   8.480   1.630
  322DIO    H1418026   0.147   8.248   1.735
  322DIO    H1518027   0.071   8.393   1.673
  322DIO    H1618028   0.084   8.121   1.533
  322DIO    H1718029  -0.055   8.196   1.610
  322DIO    H1818030  -0.046   8.383   1.439
  322DIO    H1918031   0.085   8.295   1.356
  322DIO    H2018032  -0.075   8.223   1.370
  323DIO     F118033   6.406   9.453   7.074
  323DIO     C118034   6.328   9.500   6.975
  323DIO     C218035   6.184   9.486   6.984
  323DIO     C318036   6.095   9.534   6.876
  323DIO     C418037   6.161   9.599   6.760
  323DIO     C518038   6.305   9.612   6.753
  323DIO     F218039   6.361   9.676   6.648
  323DIO     C618040   6.389   9.563   6.860
  323DIO     F318041   6.523   9.575   6.852
  323DIO     C718042   5.949   9.520   6.884
  323DIO     C818043   5.872   9.462   6.771
  323DIO     C918044   5.727   9.448   6.778
  323DIO    C1018045   5.655   9.501   6.892
  323DIO    C1118046   5.727   9.552   7.007
  323DIO    C1218047   5.871   9.563   7.001
  323DIO     F418048   5.936   9.616   7.107
  323DIO     O118049   5.522   9.464   6.903
  323DIO    C1318050   5.428   9.550   6.957
  323DIO     O218051   5.427   9.675   6.976
  323DIO    C1418052   5.299   9.485   6.981
  323DIO    C1518053   5.232   9.402   6.878
  323DIO     F518054   5.295   9.377   6.761
  323DIO    C1618055   5.102   9.343   6.898
  323DIO    C1718056   5.026   9.369   7.020
  323DIO    C1818057   5.095   9.436   7.130
  323DIO    C1918058   5.226   9.494   7.110
  323DIO     F618059   5.289   9.541   7.220
  323DIO    C2018060   4.885   9.317   7.037
  323DIO     O318061   4.815   9.297   6.914
  323DIO    C2118062   4.772   9.418   6.855
  323DIO    C2218063   4.683   9.497   6.951
  323DIO    C2318064   4.764   9.517   7.079
  323DIO     O418065   4.808   9.392   7.131
  323DIO    C2418066   4.550   9.425   6.983
  323DIO    C2518067   4.459   9.395   6.863
  323DIO    C2618068   4.421   9.518   6.783
  323DIO     H118069   6.142   9.439   7.072
  323DIO     H218070   6.100   9.645   6.683
  323DIO     H318071   5.923   9.424   6.684
  323DIO     H418072   5.672   9.398   6.700
  323DIO     H518073   5.673   9.586   7.094
  323DIO     H618074   5.064   9.276   6.822
  323DIO     H718075   5.052   9.438   7.229
  323DIO     H818076   4.895   9.217   7.081
  323DIO     H918077   4.858   9.478   6.825
  323DIO    H1018078   4.719   9.394   6.762
  323DIO    H1118079   4.660   9.595   6.908
  323DIO    H1218080   4.703   9.565   7.156
  323DIO    H1318081   4.850   9.582   7.061
  323DIO    H1418082   4.570   9.330   7.035
  323DIO    H1518083   4.494   9.487   7.054
  323DIO    H1618084   4.507   9.322   6.797
  323DIO    H1718085   4.368   9.348   6.900
  323DIO    H1818086   4.377   9.595   6.847
  323DIO    H1918087   4.508   9.561   6.732
  323DIO    H2018088   4.347   9.492   6.706
  324DIO     F118089   6.425   4.394   3.296
  324DIO     C118090   6.347   4.396   3.406
  324DIO     C218091   6.203   4.405   3.391
  324DIO     C318092   6.114   4.410   3.510
  324DIO     C418093   6.180   4.404   3.643
  324DIO     C518094   6.324   4.396   3.655
  324DIO     F218095   6.380   4.387   3.777
  324DIO     C618096   6.408   4.391   3.537
  324DIO     F318097   6.542   4.385   3.550
  324DIO     C718098   5.968   4.420   3.497
  324DIO     C818099   5.891   4.522   3.571
  324DIO     C918100   5.746   4.531   3.559
  324DIO    C1018101   5.674   4.432   3.481
  324DIO    C1118102   5.746   4.335   3.401
  324DIO    C1218103   5.890   4.328   3.411
  324DIO     F418104   5.955   4.234   3.340
  324DIO     O118105   5.541   4.461   3.454
  324DIO    C1318106   5.447   4.359   3.445
  324DIO     O218107   5.446   4.240   3.484
  324DIO    C1418108   5.318   4.407   3.394
  324DIO    C1518109   5.251   4.527   3.449
  324DIO     F518110   5.314   4.602   3.542
  324DIO    C1618111   5.121   4.571   3.404
  324DIO    C1718112   5.045   4.493   3.307
  324DIO    C1818113   5.114   4.384   3.239
  324DIO    C1918114   5.245   4.341   3.283
  324DIO     F618115   5.308   4.249   3.206
  324DIO    C2018116   4.904   4.532   3.268
  324DIO     O318117   4.834   4.606   3.369
  324DIO    C2118118   4.791   4.523   3.477
  324DIO    C2218119   4.702   4.410   3.426
  324DIO    C2318120   4.783   4.334   3.321
  324DIO     O418121   4.827   4.422   3.218
  324DIO    C2418122   4.569   4.460   3.365
  324DIO    C2518123   4.478   4.540   3.459
  324DIO    C2618124   4.440   4.466   3.586
  324DIO     H118125   6.161   4.407   3.292
  324DIO     H218126   6.119   4.398   3.732
  324DIO     H318127   5.942   4.595   3.632
  324DIO     H418128   5.691   4.611   3.606
  324DIO     H518129   5.692   4.266   3.338
  324DIO     H618130   5.083   4.665   3.442
  324DIO     H718131   5.071   4.337   3.151
  324DIO     H818132   4.914   4.602   3.184
  324DIO     H918133   4.877   4.483   3.530
  324DIO    H1018134   4.738   4.587   3.548
  324DIO    H1118135   4.679   4.342   3.509
  324DIO    H1218136   4.722   4.257   3.274
  324DIO    H1318137   4.869   4.284   3.366
  324DIO    H1418138   4.589   4.521   3.276
  324DIO    H1518139   4.513   4.373   3.330
  324DIO    H1618140   4.526   4.636   3.485
  324DIO    H1718141   4.387   4.566   3.404
  324DIO    H1818142   4.396   4.369   3.563
  324DIO    H1918143   4.527   4.451   3.651
  324DIO    H2018144   4.366   4.524   3.642
  325DIO     F118145   4.493   5.872   3.797
  325DIO     C118146   4.416   5.803   3.712
  325DIO     C218147   4.271   5.805   3.729
  325DIO     C318148   4.183   5.728   3.639
  325DIO     C418149   4.248   5.652   3.530
  325DIO     C518150   4.392   5.651   3.516
  325DIO     F218151   4.448   5.583   3.413
  325DIO     C618152   4.476   5.726   3.606
  325DIO     F318153   4.610   5.724   3.592
  325DIO     C718154   4.036   5.729   3.655
  325DIO     C818155   3.959   5.603   3.659
  325DIO     C918156   3.814   5.603   3.674
  325DIO    C1018157   3.742   5.729   3.675
  325DIO    C1118158   3.814   5.854   3.679
  325DIO    C1218159   3.958   5.854   3.666
  325DIO     F418160   4.023   5.972   3.665
  325DIO     O118161   3.610   5.722   3.714
  325DIO    C1318162   3.515   5.808   3.659
  325DIO     O218163   3.514   5.879   3.554
  325DIO    C1418164   3.386   5.802   3.728
  325DIO    C1518165   3.320   5.674   3.759
  325DIO     F518166   3.382   5.557   3.731
  325DIO    C1618167   3.189   5.666   3.821
  325DIO    C1718168   3.113   5.787   3.850
  325DIO    C1818169   3.182   5.915   3.837
  325DIO    C1918170   3.314   5.922   3.776
  325DIO     F618171   3.376   6.042   3.780
  325DIO    C2018172   2.972   5.780   3.904
  325DIO     O318173   2.903   5.660   3.870
  325DIO    C2118174   2.859   5.659   3.734
  325DIO    C2218175   2.770   5.780   3.705
  325DIO    C2318176   2.851   5.904   3.741
  325DIO     O418177   2.895   5.898   3.877
  325DIO    C2418178   2.637   5.778   3.784
  325DIO    C2518179   2.547   5.657   3.759
  325DIO    C2618180   2.508   5.637   3.613
  325DIO     H118181   4.229   5.865   3.809
  325DIO     H218182   4.188   5.602   3.455
  325DIO     H318183   4.011   5.508   3.656
  325DIO     H418184   3.759   5.511   3.686
  325DIO     H518185   3.760   5.948   3.685
  325DIO     H618186   3.151   5.568   3.849
  325DIO     H718187   3.139   6.006   3.877
  325DIO     H818188   2.982   5.777   4.014
  325DIO     H918189   2.946   5.658   3.667
  325DIO    H1018190   2.806   5.565   3.716
  325DIO    H1118191   2.748   5.783   3.597
  325DIO    H1218192   2.790   5.994   3.731
  325DIO    H1318193   2.937   5.916   3.675
  325DIO    H1418194   2.657   5.784   3.891
  325DIO    H1518195   2.581   5.868   3.758
  325DIO    H1618196   2.594   5.565   3.797
  325DIO    H1718197   2.455   5.670   3.818
  325DIO    H1818198   2.464   5.728   3.571
  325DIO    H1918199   2.595   5.609   3.552
  325DIO    H2018200   2.435   5.557   3.604
  326DIO     F118201   6.308   3.131   3.679
  326DIO     C118202   6.230   3.110   3.571
  326DIO     C218203   6.086   3.104   3.587
  326DIO     C318204   5.997   3.079   3.471
  326DIO     C418205   6.063   3.062   3.339
  326DIO     C518206   6.207   3.068   3.326
  326DIO     F218207   6.262   3.056   3.204
  326DIO     C618208   6.291   3.092   3.441
  326DIO     F318209   6.424   3.097   3.427
  326DIO     C718210   5.851   3.072   3.485
  326DIO     C818211   5.774   2.958   3.430
  326DIO     C918212   5.629   2.951   3.443
  326DIO    C1018213   5.556   3.062   3.503
  326DIO    C1118214   5.629   3.171   3.566
  326DIO    C1218215   5.773   3.176   3.554
  326DIO     F418216   5.838   3.282   3.608
  326DIO     O118217   5.424   3.038   3.535
  326DIO    C1318218   5.330   3.140   3.526
  326DIO     O218219   5.329   3.251   3.467
  326DIO    C1418220   5.201   3.102   3.585
  326DIO    C1518221   5.134   2.974   3.551
  326DIO     F518222   5.197   2.884   3.472
  326DIO    C1618223   5.003   2.938   3.602
  326DIO    C1718224   4.928   3.031   3.685
  326DIO    C1818225   4.996   3.150   3.733
  326DIO    C1918226   5.128   3.185   3.683
  326DIO     F618227   5.191   3.289   3.743
  326DIO    C2018228   4.787   2.999   3.730
  326DIO     O318229   4.717   2.910   3.643
  326DIO    C2118230   4.674   2.973   3.523
  326DIO    C2218231   4.585   3.093   3.553
  326DIO    C2318232   4.665   3.185   3.644
  326DIO     O418233   4.710   3.116   3.760
  326DIO    C2418234   4.452   3.054   3.622
  326DIO    C2518235   4.361   2.959   3.543
  326DIO    C2618236   4.323   3.010   3.405
  326DIO     H118237   6.043   3.119   3.685
  326DIO     H218238   6.002   3.053   3.250
  326DIO     H318239   5.825   2.876   3.382
  326DIO     H418240   5.574   2.864   3.410
  326DIO     H518241   5.574   3.250   3.615
  326DIO     H618242   4.965   2.838   3.581
  326DIO     H718243   4.954   3.211   3.812
  326DIO     H818244   4.797   2.945   3.825
  326DIO     H918245   4.760   3.003   3.463
  326DIO    H1018246   4.621   2.898   3.463
  326DIO    H1118247   4.562   3.146   3.460
  326DIO    H1218248   4.604   3.270   3.677
  326DIO    H1318249   4.752   3.227   3.591
  326DIO    H1418250   4.472   3.009   3.720
  326DIO    H1518251   4.395   3.146   3.642
  326DIO    H1618252   4.409   2.860   3.534
  326DIO    H1718253   4.269   2.943   3.601
  326DIO    H1818254   4.279   3.110   3.411
  326DIO    H1918255   4.409   3.014   3.339
  326DIO    H2018256   4.249   2.943   3.360
  327DIO     F118257   5.180   9.662   0.502
  327DIO     C118258   5.103   9.592   0.587
  327DIO     C218259   4.959   9.607   0.581
  327DIO     C318260   4.870   9.534   0.674
  327DIO     C418261   4.935   9.443   0.771
  327DIO     C518262   5.080   9.429   0.774
  327DIO     F218263   5.135   9.341   0.861
  327DIO     C618264   5.163   9.502   0.683
  327DIO     F318265   5.297   9.489   0.688
  327DIO     C718266   4.723   9.550   0.671
  327DIO     C818267   4.646   9.579   0.794
  327DIO     C918268   4.502   9.593   0.790
  327DIO    C1018269   4.429   9.570   0.667
  327DIO    C1118270   4.501   9.549   0.543
  327DIO    C1218271   4.646   9.537   0.546
  327DIO     F418272   4.710   9.512   0.430
  327DIO     O118273   4.297   9.609   0.665
  327DIO    C1318274   4.202   9.538   0.592
  327DIO     O218275   4.201   9.422   0.543
  327DIO    C1418276   4.073   9.608   0.584
  327DIO    C1518277   4.007   9.662   0.704
  327DIO     F518278   4.069   9.658   0.824
  327DIO    C1618279   3.876   9.725   0.700
  327DIO    C1718280   3.800   9.730   0.576
  327DIO    C1818281   3.869   9.692   0.453
  327DIO    C1918282   4.001   9.631   0.457
  327DIO     F618283   4.063   9.611   0.339
  327DIO    C2018284   3.660   9.785   0.571
  327DIO     O318285   3.590   9.774   0.696
  327DIO    C2118286   3.546   9.641   0.723
  327DIO    C2218287   3.457   9.589   0.611
  327DIO    C2318288   3.538   9.601   0.482
  327DIO     O418289   3.582   9.735   0.462
  327DIO    C2418290   3.324   9.667   0.598
  327DIO    C2518291   3.234   9.666   0.721
  327DIO    C2618292   3.195   9.527   0.769
  327DIO     H118293   4.916   9.674   0.507
  327DIO     H218294   4.875   9.379   0.834
  327DIO     H318295   4.698   9.594   0.887
  327DIO     H418296   4.446   9.623   0.879
  327DIO     H518297   4.447   9.537   0.450
  327DIO     H618298   3.838   9.771   0.790
  327DIO     H718299   3.826   9.714   0.356
  327DIO     H818300   3.669   9.892   0.553
  327DIO     H918301   3.633   9.576   0.737
  327DIO    H1018302   3.493   9.642   0.819
  327DIO    H1118303   3.435   9.483   0.629
  327DIO    H1218304   3.477   9.573   0.395
  327DIO    H1318305   3.624   9.533   0.483
  327DIO    H1418306   3.344   9.771   0.571
  327DIO    H1518307   3.268   9.624   0.514
  327DIO    H1618308   3.281   9.721   0.803
  327DIO    H1718309   3.142   9.721   0.696
  327DIO    H1818310   3.151   9.468   0.687
  327DIO    H1918311   3.282   9.473   0.808
  327DIO    H2018312   3.122   9.534   0.849
  328DIO     F118313  10.707   8.040   7.997
  328DIO     C118314  10.629   8.035   8.107
  328DIO     C218315  10.485   8.045   8.093
  328DIO     C318316  10.396   8.042   8.211
  328DIO     C418317  10.462   8.027   8.343
  328DIO     C518318  10.606   8.018   8.355
  328DIO     F218319  10.662   8.001   8.476
  328DIO     C618320  10.690   8.022   8.237
  328DIO     F318321  10.824   8.014   8.249
  328DIO     C718322  10.250   8.052   8.199
  328DIO     C818323  10.173   8.150   8.280
  328DIO     C918324  10.028   8.159   8.268
  328DIO    C1018325   9.956   8.066   8.184
  328DIO    C1118326  10.028   7.975   8.097
  328DIO    C1218327  10.172   7.967   8.107
  328DIO     F418328  10.237   7.877   8.030
  328DIO     O118329   9.823   8.097   8.159
  328DIO    C1318330   9.729   7.996   8.143
  328DIO     O218331   9.728   7.874   8.174
  328DIO    C1418332   9.600   8.046   8.095
  328DIO    C1518333   9.534   8.163   8.158
  328DIO     F518334   9.596   8.232   8.256
  328DIO    C1618335   9.403   8.210   8.117
  328DIO    C1718336   9.327   8.139   8.014
  328DIO    C1818337   9.396   8.034   7.939
  328DIO    C1918338   9.527   7.988   7.980
  328DIO     F618339   9.590   7.902   7.897
  328DIO    C2018340   9.186   8.180   7.978
  328DIO     O318341   9.117   8.247   8.084
  328DIO    C2118342   9.073   8.157   8.186
  328DIO    C2218343   8.984   8.048   8.128
  328DIO    C2318344   9.065   7.979   8.018
  328DIO     O418345   9.109   8.074   7.921
  328DIO    C2418346   8.851   8.102   8.070
  328DIO    C2518347   8.761   8.176   8.169
  328DIO    C2618348   8.722   8.093   8.291
  328DIO     H118349  10.443   8.053   7.994
  328DIO     H218350  10.401   8.015   8.432
  328DIO     H318351  10.224   8.219   8.345
  328DIO     H418352   9.973   8.236   8.321
  328DIO     H518353   9.974   7.909   8.031
  328DIO     H618354   9.365   8.301   8.161
  328DIO     H718355   9.353   7.993   7.849
  328DIO     H818356   9.196   8.255   7.899
  328DIO     H918357   9.160   8.114   8.237
  328DIO    H1018358   9.020   8.216   8.262
  328DIO    H1118359   8.961   7.974   8.206
  328DIO    H1218360   9.004   7.905   7.966
  328DIO    H1318361   9.151   7.926   8.060
  328DIO    H1418362   8.871   8.169   7.986
  328DIO    H1518363   8.795   8.017   8.029
  328DIO    H1618364   8.808   8.269   8.201
  328DIO    H1718365   8.669   8.205   8.116
  328DIO    H1818366   8.678   7.997   8.262
  328DIO    H1918367   8.809   8.074   8.355
  328DIO    H2018368   8.648   8.148   8.351
  329DIO     F118369   8.779  10.209  10.445
  329DIO     C118370   8.702  10.187  10.553
  329DIO     C218371   8.558  10.198  10.541
  329DIO     C318372   8.469  10.177  10.657
  329DIO     C418373   8.534  10.141  10.785
  329DIO     C518374   8.679  10.130  10.795
  329DIO     F218375   8.734  10.093  10.912
  329DIO     C618376   8.762  10.153  10.679
  329DIO     F318377   8.896  10.143  10.690
  329DIO     C718378   8.322  10.189  10.647
  329DIO     C818379   8.245  10.272  10.742
  329DIO     C918380   8.101  10.283  10.732
  329DIO    C1018381   8.028  10.205  10.634
  329DIO    C1118382   8.100  10.129  10.534
  329DIO    C1218383   8.245  10.119  10.542
  329DIO     F418384   8.309  10.044  10.451
  329DIO     O118385   7.896  10.239  10.614
  329DIO    C1318386   7.801  10.142  10.582
  329DIO     O218387   7.800  10.017  10.593
  329DIO    C1418388   7.672  10.200  10.543
  329DIO    C1518389   7.606  10.305  10.624
  329DIO     F518390   7.668  10.357  10.732
  329DIO    C1618391   7.475  10.358  10.591
  329DIO    C1718392   7.399  10.304  10.478
  329DIO    C1818393   7.468  10.213  10.387
  329DIO    C1918394   7.600  10.161  10.420
  329DIO     F618395   7.662  10.089  10.324
  329DIO    C2018396   7.259  10.351  10.449
  329DIO     O318397   7.189  10.399  10.565
  329DIO    C2118398   7.145  10.294  10.651
  329DIO    C2218399   7.056  10.196  10.576
  329DIO    C2318400   7.137  10.146  10.456
  329DIO     O418401   7.181  10.255  10.376
  329DIO    C2418402   6.923  10.258  10.527
  329DIO    C2518403   6.833  10.315  10.637
  329DIO    C2618404   6.794  10.214  10.744
  329DIO     H118405   8.515  10.223  10.444
  329DIO     H218406   8.474  10.114  10.871
  329DIO     H318407   8.297  10.329  10.818
  329DIO     H418408   8.045  10.350  10.797
  329DIO     H518409   8.046  10.075  10.457
  329DIO     H618410   7.437  10.441  10.649
  329DIO     H718411   7.425  10.188  10.291
  329DIO     H818412   7.268  10.437  10.383
  329DIO     H918413   7.232  10.243  10.694
  329DIO    H1018414   7.092  10.340  10.735
  329DIO    H1118415   7.034  10.111  10.641
  329DIO    H1218416   7.076  10.081  10.392
  329DIO    H1318417   7.223  10.087  10.489
  329DIO    H1418418   6.943  10.338  10.455
  329DIO    H1518419   6.867  10.182  10.473
  329DIO    H1618420   6.880  10.402  10.684
  329DIO    H1718421   6.741  10.353  10.590
  329DIO    H1818422   6.750  10.124  10.699
  329DIO    H1918423   6.881  10.185  10.804
  329DIO    H2018424   6.721  10.258  10.812
  330DIO     F118425   2.281  -0.845   5.692
  330DIO     C118426   2.203  -0.742   5.729
  330DIO     C218427   2.059  -0.752   5.716
  330DIO     C318428   1.970  -0.640   5.754
  330DIO     C418429   2.036  -0.518   5.807
  330DIO     C518430   2.180  -0.510   5.819
  330DIO     F218431   2.235  -0.399   5.872
  330DIO     C618432   2.264  -0.621   5.781
  330DIO     F318433   2.397  -0.612   5.792
  330DIO     C718434   1.824  -0.649   5.740
  330DIO     C818435   1.747  -0.543   5.671
  330DIO     C918436   1.602  -0.551   5.659
  330DIO    C1018437   1.529  -0.659   5.722
  330DIO    C1118438   1.602  -0.769   5.784
  330DIO    C1218439   1.746  -0.762   5.795
  330DIO     F418440   1.811  -0.862   5.857
  330DIO     O118441   1.397  -0.674   5.686
  330DIO    C1318442   1.303  -0.719   5.778
  330DIO     O218443   1.302  -0.725   5.903
  330DIO    C1418444   1.174  -0.750   5.715
  330DIO    C1518445   1.107  -0.655   5.623
  330DIO     F518446   1.170  -0.541   5.586
  330DIO    C1618447   0.976  -0.681   5.565
  330DIO    C1718448   0.901  -0.799   5.603
  330DIO    C1818449   0.969  -0.902   5.680
  330DIO    C1918450   1.101  -0.877   5.737
  330DIO     F618451   1.164  -0.982   5.795
  330DIO    C2018452   0.760  -0.822   5.553
  330DIO     O318453   0.690  -0.701   5.521
  330DIO    C2118454   0.647  -0.630   5.636
  330DIO    C2218455   0.558  -0.718   5.724
  330DIO    C2318456   0.638  -0.843   5.756
  330DIO     O418457   0.683  -0.908   5.637
  330DIO    C2418458   0.425  -0.757   5.655
  330DIO    C2518459   0.334  -0.641   5.614
  330DIO    C2618460   0.296  -0.549   5.729
  330DIO     H118461   2.016  -0.845   5.678
  330DIO     H218462   1.975  -0.437   5.845
  330DIO     H318463   1.798  -0.460   5.625
  330DIO     H418464   1.547  -0.478   5.601
  330DIO     H518465   1.547  -0.852   5.827
  330DIO     H618466   0.938  -0.611   5.491
  330DIO     H718467   0.927  -1.001   5.693
  330DIO     H818468   0.770  -0.875   5.458
  330DIO     H918469   0.733  -0.595   5.693
  330DIO    H1018470   0.594  -0.540   5.603
  330DIO    H1118471   0.535  -0.665   5.817
  330DIO    H1218472   0.577  -0.915   5.812
  330DIO    H1318473   0.725  -0.819   5.820
  330DIO    H1418474   0.445  -0.818   5.566
  330DIO    H1518475   0.368  -0.822   5.724
  330DIO    H1618476   0.382  -0.582   5.534
  330DIO    H1718477   0.242  -0.683   5.570
  330DIO    H1818478   0.252  -0.605   5.811
  330DIO    H1918479   0.382  -0.493   5.766
  330DIO    H2018480   0.222  -0.475   5.695
  331DIO     F118481  10.346   4.292   1.688
  331DIO     C118482  10.268   4.356   1.777
  331DIO     C218483  10.124   4.354   1.760
  331DIO     C318484  10.035   4.425   1.855
  331DIO     C418485  10.101   4.495   1.969
  331DIO     C518486  10.245   4.495   1.983
  331DIO     F218487  10.301   4.556   2.090
  331DIO     C618488  10.329   4.425   1.888
  331DIO     F318489  10.463   4.427   1.903
  331DIO     C718490   9.889   4.426   1.839
  331DIO     C818491   9.812   4.552   1.843
  331DIO     C918492   9.667   4.553   1.828
  331DIO    C1018493   9.595   4.427   1.819
  331DIO    C1118494   9.667   4.302   1.807
  331DIO    C1218495   9.811   4.302   1.820
  331DIO     F418496   9.876   4.184   1.814
  331DIO     O118497   9.462   4.436   1.781
  331DIO    C1318498   9.368   4.347   1.830
  331DIO     O218499   9.367   4.270   1.930
  331DIO    C1418500   9.239   4.357   1.761
  331DIO    C1518501   9.172   4.488   1.739
  331DIO     F518502   9.235   4.602   1.774
  331DIO    C1618503   9.042   4.500   1.677
  331DIO    C1718504   8.966   4.380   1.641
  331DIO    C1818505   9.035   4.252   1.646
  331DIO    C1918506   9.166   4.240   1.706
  331DIO     F618507   9.229   4.121   1.694
  331DIO    C2018508   8.825   4.391   1.587
  331DIO     O318509   8.755   4.508   1.629
  331DIO    C2118510   8.712   4.500   1.765
  331DIO    C2218511   8.623   4.378   1.786
  331DIO    C2318512   8.704   4.256   1.741
  331DIO     O418513   8.748   4.272   1.607
  331DIO    C2418514   8.490   4.385   1.708
  331DIO    C2518515   8.399   4.504   1.740
  331DIO    C2618516   8.361   4.514   1.887
  331DIO     H118517  10.082   4.300   1.677
  331DIO     H218518  10.040   4.540   2.047
  331DIO     H318519   9.863   4.647   1.853
  331DIO     H418520   9.612   4.645   1.823
  331DIO     H518521   9.613   4.209   1.794
  331DIO     H618522   9.004   4.599   1.656
  331DIO     H718523   8.992   4.164   1.599
  331DIO     H818524   8.835   4.401   1.478
  331DIO     H918525   8.798   4.497   1.831
  331DIO    H1018526   8.659   4.593   1.788
  331DIO    H1118527   8.600   4.368   1.893
  331DIO    H1218528   8.643   4.166   1.746
  331DIO    H1318529   8.790   4.240   1.807
  331DIO    H1418530   8.510   4.386   1.600
  331DIO    H1518531   8.434   4.293   1.727
  331DIO    H1618532   8.447   4.598   1.708
  331DIO    H1718533   8.308   4.495   1.681
  331DIO    H1818534   8.317   4.421   1.923
  331DIO    H1918535   8.448   4.538   1.949
  331DIO    H2018536   8.287   4.594   1.901
  332DIO     F118537  10.363   5.347  10.595
  332DIO     C118538  10.286   5.457  10.596
  332DIO     C218539  10.142   5.443  10.587
  332DIO     C318540  10.053   5.561  10.585
  332DIO     C418541  10.118   5.694  10.595
  332DIO     C518542  10.263   5.706  10.604
  332DIO     F218543  10.318   5.828  10.617
  332DIO     C618544  10.346   5.588  10.605
  332DIO     F318545  10.480   5.601  10.612
  332DIO     C718546   9.906   5.549  10.575
  332DIO     C818547   9.829   5.626  10.475
  332DIO     C918548   9.685   5.614  10.466
  332DIO    C1018549   9.612   5.533  10.562
  332DIO    C1118550   9.685   5.450  10.656
  332DIO    C1218551   9.829   5.460  10.664
  332DIO     F418552   9.894   5.386  10.756
  332DIO     O118553   9.480   5.507  10.532
  332DIO    C1318554   9.385   5.495  10.634
  332DIO     O218555   9.384   5.530  10.755
  332DIO    C1418556   9.256   5.445  10.585
  332DIO    C1518557   9.190   5.504  10.466
  332DIO     F518558   9.253   5.599  10.394
  332DIO    C1618559   9.059   5.461  10.421
  332DIO    C1718560   8.983   5.361  10.495
  332DIO    C1818561   9.052   5.290  10.602
  332DIO    C1918562   9.184   5.332  10.647
  332DIO     F618563   9.246   5.252  10.736
  332DIO    C2018564   8.843   5.324  10.455
  332DIO     O318565   8.773   5.427  10.385
  332DIO    C2118566   8.729   5.532  10.471
  332DIO    C2218567   8.640   5.478  10.583
  332DIO    C2318568   8.721   5.370  10.655
  332DIO     O418569   8.765   5.270  10.563
  332DIO    C2418570   8.508   5.418  10.531
  332DIO    C2518571   8.417   5.515  10.453
  332DIO    C2618572   8.378   5.639  10.531
  332DIO     H118573  10.099   5.343  10.581
  332DIO     H218574  10.058   5.783  10.605
  332DIO     H318575   9.881   5.689  10.404
  332DIO     H418576   9.630   5.664  10.388
  332DIO     H518577   9.630   5.385  10.724
  332DIO     H618578   9.021   5.502  10.328
  332DIO     H718579   9.009   5.201  10.646
  332DIO     H818580   8.852   5.242  10.383
  332DIO     H918581   8.816   5.584  10.513
  332DIO    H1018582   8.676   5.606  10.410
  332DIO    H1118583   8.618   5.558  10.653
  332DIO    H1218584   8.660   5.321  10.731
  332DIO    H1318585   8.807   5.414  10.707
  332DIO    H1418586   8.527   5.332  10.466
  332DIO    H1518587   8.451   5.380  10.617
  332DIO    H1618588   8.464   5.544  10.359
  332DIO    H1718589   8.325   5.461  10.426
  332DIO    H1818590   8.335   5.613  10.628
  332DIO    H1918591   8.465   5.704  10.549
  332DIO    H2018592   8.305   5.697  10.475
  333DIO     F118593   2.479  10.844   2.978
  333DIO     C118594   2.401  10.745   2.931
  333DIO     C218595   2.257  10.754   2.945
  333DIO     C318596   2.168  10.646   2.897
  333DIO     C418597   2.234  10.530   2.833
  333DIO     C518598   2.378  10.523   2.820
  333DIO     F218599   2.433  10.417   2.757
  333DIO     C618600   2.462  10.630   2.868
  333DIO     F318601   2.595  10.621   2.857
  333DIO     C718602   2.022  10.653   2.911
  333DIO     C818603   1.945  10.541   2.970
  333DIO     C918604   1.800  10.548   2.983
  333DIO    C1018605   1.727  10.662   2.930
  333DIO    C1118606   1.800  10.777   2.879
  333DIO    C1218607   1.944  10.771   2.868
  333DIO     F418608   2.009  10.877   2.815
  333DIO     O118609   1.595  10.673   2.968
  333DIO    C1318610   1.501  10.727   2.881
  333DIO     O218611   1.500  10.745   2.756
  333DIO    C1418612   1.372  10.751   2.946
  333DIO    C1518613   1.305  10.648   3.029
  333DIO     F518614   1.368  10.531   3.055
  333DIO    C1618615   1.174  10.668   3.089
  333DIO    C1718616   1.099  10.790   3.063
  333DIO    C1818617   1.167  10.900   2.995
  333DIO    C1918618   1.299  10.880   2.937
  333DIO     F618619   1.362  10.990   2.889
  333DIO    C2018620   0.958  10.807   3.115
  333DIO     O318621   0.888  10.684   3.135
  333DIO    C2118622   0.845  10.625   3.013
  333DIO    C2218623   0.756  10.721   2.935
  333DIO    C2318624   0.836  10.849   2.914
  333DIO     O418625   0.881  10.901   3.039
  333DIO    C2418626   0.623  10.753   3.007
  333DIO    C2518627   0.532  10.633   3.037
  333DIO    C2618628   0.494  10.553   2.914
  333DIO     H118629   2.214  10.842   2.992
  333DIO     H218630   2.173  10.452   2.787
  333DIO     H318631   1.996  10.454   3.008
  333DIO     H418632   1.745  10.470   3.034
  333DIO     H518633   1.745  10.864   2.845
  333DIO     H618634   1.136  10.592   3.156
  333DIO     H718635   1.125  10.999   2.993
  333DIO     H818636   0.968  10.852   3.214
  333DIO     H918637   0.931  10.595   2.953
  333DIO    H1018638   0.792  10.532   3.038
  333DIO    H1118639   0.733  10.677   2.837
  333DIO    H1218640   0.775  10.925   2.866
  333DIO    H1318641   0.923  10.831   2.849
  333DIO    H1418642   0.643  10.805   3.101
  333DIO    H1518643   0.566  10.824   2.945
  333DIO    H1618644   0.580  10.567   3.110
  333DIO    H1718645   0.440  10.670   3.084
  333DIO    H1818646   0.450  10.617   2.836
  333DIO    H1918647   0.580  10.501   2.871
  333DIO    H2018648   0.420  10.476   2.940
  334DIO     F118649   2.328  10.023   7.957
  334DIO     C118650   2.250  10.091   8.043
  334DIO     C218651   2.106  10.089   8.026
  334DIO     C318652   2.017  10.164   8.118
  334DIO     C418653   2.083  10.239   8.227
  334DIO     C518654   2.227  10.240   8.242
  334DIO     F218655   2.283  10.305   8.346
  334DIO     C618656   2.311  10.166   8.151
  334DIO     F318657   2.445  10.168   8.165
  334DIO     C718658   1.871  10.164   8.102
  334DIO     C818659   1.794  10.290   8.100
  334DIO     C918660   1.649  10.290   8.084
  334DIO    C1018661   1.577  10.165   8.081
  334DIO    C1118662   1.649  10.039   8.075
  334DIO    C1218663   1.793  10.039   8.088
  334DIO     F418664   1.858   9.921   8.087
  334DIO     O118665   1.444  10.172   8.042
  334DIO    C1318666   1.350  10.085   8.096
  334DIO     O218667   1.349  10.012   8.199
  334DIO    C1418668   1.221  10.092   8.027
  334DIO    C1518669   1.155  10.221   7.999
  334DIO     F518670   1.217  10.337   8.028
  334DIO    C1618671   1.024  10.230   7.936
  334DIO    C1718672   0.948  10.109   7.905
  334DIO    C1818673   1.017   9.981   7.916
  334DIO    C1918674   1.148   9.973   7.977
  334DIO     F618675   1.211   9.853   7.971
  334DIO    C2018676   0.807  10.117   7.851
  334DIO     O318677   0.738  10.237   7.888
  334DIO    C2118678   0.694  10.235   8.023
  334DIO    C2218679   0.605  10.114   8.051
  334DIO    C2318680   0.686   9.990   8.012
  334DIO     O418681   0.730   9.999   7.877
  334DIO    C2418682   0.472  10.117   7.972
  334DIO    C2518683   0.382  10.238   7.999
  334DIO    C2618684   0.343  10.255   8.145
  334DIO     H118685   2.064  10.031   7.945
  334DIO     H218686   2.022  10.288   8.303
  334DIO     H318687   1.845  10.385   8.104
  334DIO     H418688   1.594  10.383   8.075
  334DIO     H518689   1.595   9.946   8.067
  334DIO     H618690   0.986  10.328   7.911
  334DIO     H718691   0.974   9.891   7.874
  334DIO     H818692   0.817  10.122   7.742
  334DIO     H918693   0.781  10.235   8.090
  334DIO    H1018694   0.641  10.329   8.043
  334DIO    H1118695   0.582  10.109   8.158
  334DIO    H1218696   0.625   9.900   8.021
  334DIO    H1318697   0.772   9.977   8.078
  334DIO    H1418698   0.492  10.113   7.864
  334DIO    H1518699   0.416  10.026   7.996
  334DIO    H1618700   0.429  10.330   7.962
  334DIO    H1718701   0.290  10.226   7.940
  334DIO    H1818702   0.299  10.163   8.185
  334DIO    H1918703   0.430  10.282   8.206
  334DIO    H2018704   0.269  10.335   8.155
  335DIO     F118705   4.556   1.599   1.024
  335DIO     C118706   4.478   1.492   1.000
  335DIO     C218707   4.334   1.504   1.012
  335DIO     C318708   4.245   1.388   0.989
  335DIO     C418709   4.311   1.261   0.951
  335DIO     C518710   4.455   1.251   0.940
  335DIO     F218711   4.511   1.134   0.902
  335DIO     C618712   4.539   1.366   0.964
  335DIO     F318713   4.673   1.355   0.955
  335DIO     C718714   4.099   1.398   1.001
  335DIO     C818715   4.022   1.302   1.083
  335DIO     C918716   3.877   1.312   1.094
  335DIO    C1018717   3.805   1.411   1.017
  335DIO    C1118718   3.877   1.512   0.942
  335DIO    C1218719   4.021   1.504   0.933
  335DIO     F418720   4.086   1.595   0.858
  335DIO     O118721   3.672   1.430   1.052
  335DIO    C1318722   3.578   1.463   0.955
  335DIO     O218723   3.577   1.454   0.829
  335DIO    C1418724   3.449   1.502   1.013
  335DIO    C1518725   3.383   1.419   1.117
  335DIO     F518726   3.445   1.311   1.168
  335DIO    C1618727   3.252   1.452   1.171
  335DIO    C1718728   3.176   1.565   1.118
  335DIO    C1818729   3.245   1.657   1.029
  335DIO    C1918730   3.376   1.625   0.976
  335DIO     F618731   3.439   1.722   0.905
  335DIO    C2018732   3.035   1.594   1.165
  335DIO     O318733   2.966   1.478   1.212
  335DIO    C2118734   2.922   1.393   1.106
  335DIO    C2218735   2.833   1.469   1.009
  335DIO    C2318736   2.914   1.590   0.960
  335DIO     O418737   2.958   1.668   1.071
  335DIO    C2418738   2.700   1.517   1.072
  335DIO    C2518739   2.610   1.406   1.128
  335DIO    C2618740   2.571   1.301   1.025
  335DIO     H118741   4.292   1.600   1.038
  335DIO     H218742   4.250   1.175   0.924
  335DIO     H318743   4.073   1.225   1.139
  335DIO     H418744   3.822   1.246   1.161
  335DIO     H518745   3.823   1.589   0.890
  335DIO     H618746   3.214   1.393   1.253
  335DIO     H718747   3.202   1.753   1.004
  335DIO     H818748   3.045   1.659   1.253
  335DIO     H918749   3.009   1.351   1.055
  335DIO    H1018750   2.869   1.308   1.151
  335DIO    H1118751   2.810   1.405   0.923
  335DIO    H1218752   2.853   1.654   0.896
  335DIO    H1318753   3.000   1.558   0.901
  335DIO    H1418754   2.720   1.588   1.153
  335DIO    H1518755   2.644   1.572   0.996
  335DIO    H1618756   2.657   1.358   1.214
  335DIO    H1718757   2.518   1.453   1.165
  335DIO    H1818758   2.527   1.346   0.936
  335DIO    H1918759   2.658   1.241   0.995
  335DIO    H2018760   2.497   1.232   1.068
  336DIO     F118761   5.221   2.631   1.353
  336DIO     C118762   5.144   2.529   1.395
  336DIO     C218763   4.999   2.546   1.397
  336DIO     C318764   4.911   2.437   1.444
  336DIO     C418765   4.976   2.310   1.485
  336DIO     C518766   5.120   2.296   1.482
  336DIO     F218767   5.176   2.178   1.516
  336DIO     C618768   5.204   2.405   1.436
  336DIO     F318769   5.338   2.391   1.434
  336DIO     C718770   4.764   2.452   1.448
  336DIO     C818771   4.687   2.419   1.570
  336DIO     C918772   4.542   2.434   1.574
  336DIO    C1018773   4.470   2.472   1.455
  336DIO    C1118774   4.542   2.513   1.335
  336DIO    C1218775   4.686   2.500   1.332
  336DIO     F418776   4.751   2.534   1.219
  336DIO     O118777   4.338   2.507   1.472
  336DIO    C1318778   4.243   2.480   1.373
  336DIO     O218779   4.242   2.401   1.275
  336DIO    C1418780   4.114   2.544   1.400
  336DIO    C1518781   4.048   2.535   1.532
  336DIO     F518782   4.110   2.475   1.635
  336DIO    C1618783   3.917   2.593   1.558
  336DIO    C1718784   3.841   2.656   1.450
  336DIO    C1818785   3.910   2.681   1.324
  336DIO    C1918786   4.042   2.625   1.299
  336DIO     F618787   4.104   2.665   1.186
  336DIO    C2018788   3.700   2.706   1.473
  336DIO     O318789   3.631   2.637   1.577
  336DIO    C2118790   3.587   2.508   1.538
  336DIO    C2218791   3.498   2.515   1.414
  336DIO    C2318792   3.579   2.587   1.306
  336DIO     O418793   3.623   2.714   1.353
  336DIO    C2418794   3.365   2.590   1.440
  336DIO    C2518795   3.275   2.530   1.548
  336DIO    C2618796   3.236   2.385   1.523
  336DIO     H118797   4.957   2.640   1.364
  336DIO     H218798   4.916   2.224   1.511
  336DIO     H318799   4.739   2.388   1.660
  336DIO     H418800   4.487   2.417   1.666
  336DIO     H518801   4.488   2.546   1.248
  336DIO     H618802   3.879   2.590   1.659
  336DIO     H718803   3.867   2.747   1.250
  336DIO     H818804   3.710   2.809   1.508
  336DIO     H918805   3.674   2.443   1.519
  336DIO    H1018806   3.534   2.463   1.623
  336DIO    H1118807   3.476   2.414   1.380
  336DIO    H1218808   3.518   2.603   1.217
  336DIO    H1318809   3.665   2.527   1.275
  336DIO    H1418810   3.385   2.694   1.466
  336DIO    H1518811   3.309   2.592   1.345
  336DIO    H1618812   3.322   2.540   1.646
  336DIO    H1718813   3.183   2.591   1.553
  336DIO    H1818814   3.192   2.372   1.424
  336DIO    H1918815   3.323   2.319   1.532
  336DIO    H2018816   3.163   2.353   1.598
  337DIO     F118817   2.302   0.434   3.459
  337DIO     C118818   2.224   0.356   3.537
  337DIO     C218819   2.080   0.372   3.533
  337DIO     C318820   1.991   0.291   3.619
  337DIO     C418821   2.057   0.191   3.706
  337DIO     C518822   2.201   0.177   3.709
  337DIO     F218823   2.257   0.082   3.787
  337DIO     C618824   2.285   0.258   3.624
  337DIO     F318825   2.419   0.245   3.628
  337DIO     C718826   1.845   0.307   3.617
  337DIO     C818827   1.768   0.324   3.742
  337DIO     C918828   1.623   0.339   3.740
  337DIO    C1018829   1.551   0.328   3.615
  337DIO    C1118830   1.623   0.318   3.489
  337DIO    C1218831   1.767   0.305   3.491
  337DIO     F418832   1.832   0.291   3.374
  337DIO     O118833   1.418   0.367   3.617
  337DIO    C1318834   1.324   0.303   3.537
  337DIO     O218835   1.323   0.191   3.478
  337DIO    C1418836   1.195   0.372   3.536
  337DIO    C1518837   1.128   0.416   3.661
  337DIO     F518838   1.191   0.401   3.779
  337DIO    C1618839   0.998   0.479   3.662
  337DIO    C1718840   0.922   0.495   3.538
  337DIO    C1818841   0.991   0.468   3.413
  337DIO    C1918842   1.122   0.407   3.411
  337DIO     F618843   1.185   0.399   3.292
  337DIO    C2018844   0.781   0.550   3.539
  337DIO     O318845   0.711   0.528   3.662
  337DIO    C2118846   0.668   0.393   3.677
  337DIO    C2218847   0.579   0.351   3.561
  337DIO    C2318848   0.660   0.375   3.433
  337DIO     O418849   0.704   0.510   3.426
  337DIO    C2418850   0.446   0.430   3.554
  337DIO    C2518851   0.355   0.418   3.677
  337DIO    C2618852   0.317   0.275   3.712
  337DIO     H118853   2.038   0.446   3.465
  337DIO     H218854   1.996   0.122   3.764
  337DIO     H318855   1.819   0.331   3.837
  337DIO     H418856   1.568   0.361   3.830
  337DIO     H518857   1.569   0.315   3.396
  337DIO     H618858   0.960   0.517   3.756
  337DIO     H718859   0.948   0.499   3.318
  337DIO     H818860   0.791   0.659   3.531
  337DIO     H918861   0.754   0.327   3.686
  337DIO    H1018862   0.615   0.386   3.773
  337DIO    H1118863   0.556   0.244   3.569
  337DIO    H1218864   0.599   0.355   3.345
  337DIO    H1318865   0.746   0.307   3.428
  337DIO    H1418866   0.466   0.536   3.537
  337DIO    H1518867   0.390   0.395   3.467
  337DIO    H1618868   0.403   0.465   3.764
  337DIO    H1718869   0.264   0.475   3.658
  337DIO    H1818870   0.273   0.224   3.626
  337DIO    H1918871   0.404   0.218   3.746
  337DIO    H2018872   0.243   0.275   3.793
  338DIO     F118873   7.329  -0.407   2.936
  338DIO     C118874   7.252  -0.299   2.917
  338DIO     C218875   7.108  -0.315   2.911
  338DIO     C318876   7.019  -0.199   2.888
  338DIO     C418877   7.084  -0.066   2.874
  338DIO     C518878   7.229  -0.053   2.881
  338DIO     F218879   7.284   0.069   2.872
  338DIO     C618880   7.312  -0.169   2.903
  338DIO     F318881   7.446  -0.155   2.907
  338DIO     C718882   6.872  -0.213   2.881
  338DIO     C818883   6.795  -0.155   2.769
  338DIO     C918884   6.651  -0.168   2.762
  338DIO    C1018885   6.578  -0.231   2.870
  338DIO    C1118886   6.651  -0.295   2.978
  338DIO    C1218887   6.795  -0.284   2.984
  338DIO     F418888   6.860  -0.340   3.088
  338DIO     O118889   6.446  -0.261   2.846
  338DIO    C1318890   6.351  -0.255   2.948
  338DIO     O218891   6.350  -0.199   3.061
  338DIO    C1418892   6.222  -0.313   2.909
  338DIO    C1518893   6.156  -0.276   2.782
  338DIO     F518894   6.219  -0.196   2.694
  338DIO    C1618895   6.025  -0.327   2.744
  338DIO    C1718896   5.949  -0.411   2.836
  338DIO    C1818897   6.018  -0.463   2.954
  338DIO    C1918898   6.150  -0.413   2.990
  338DIO     F618899   6.212  -0.475   3.093
  338DIO    C2018900   5.809  -0.456   2.803
  338DIO     O318901   5.739  -0.366   2.716
  338DIO    C2118902   5.695  -0.248   2.781
  338DIO    C2218903   5.606  -0.281   2.901
  338DIO    C2318904   5.687  -0.374   2.991
  338DIO     O418905   5.731  -0.489   2.919
  338DIO    C2418906   5.474  -0.349   2.860
  338DIO    C2518907   5.383  -0.268   2.767
  338DIO    C2618908   5.344  -0.132   2.821
  338DIO     H118909   7.065  -0.414   2.924
  338DIO     H218910   7.024   0.023   2.867
  338DIO     H318911   6.847  -0.105   2.687
  338DIO     H418912   6.596  -0.133   2.675
  338DIO     H518913   6.596  -0.347   3.056
  338DIO     H618914   5.987  -0.303   2.646
  338DIO     H718915   5.975  -0.542   3.013
  338DIO     H818916   5.818  -0.549   2.747
  338DIO     H918917   5.782  -0.189   2.813
  338DIO    H1018918   5.642  -0.186   2.708
  338DIO    H1118919   5.584  -0.189   2.956
  338DIO    H1218920   5.626  -0.409   3.075
  338DIO    H1318921   5.773  -0.322   3.034
  338DIO    H1418922   5.493  -0.446   2.813
  338DIO    H1518923   5.417  -0.371   2.952
  338DIO    H1618924   5.430  -0.257   2.669
  338DIO    H1718925   5.291  -0.326   2.750
  338DIO    H1818926   5.301  -0.140   2.921
  338DIO    H1918927   5.431  -0.065   2.827
  338DIO    H2018928   5.271  -0.084   2.755
  339DIO     F118929   3.346   8.039   3.710
  339DIO     C118930   3.269   7.944   3.655
  339DIO     C218931   3.125   7.952   3.670
  339DIO     C318932   3.036   7.849   3.612
  339DIO     C418933   3.101   7.739   3.538
  339DIO     C518934   3.246   7.733   3.524
  339DIO     F218935   3.301   7.633   3.452
  339DIO     C618936   3.329   7.835   3.582
  339DIO     F318937   3.463   7.828   3.570
  339DIO     C718938   2.890   7.855   3.627
  339DIO     C818939   2.812   7.738   3.675
  339DIO     C918940   2.668   7.744   3.689
  339DIO    C1018941   2.595   7.862   3.647
  339DIO    C1118942   2.668   7.981   3.606
  339DIO    C1218943   2.812   7.976   3.594
  339DIO     F418944   2.877   8.086   3.551
  339DIO     O118945   2.463   7.869   3.685
  339DIO    C1318946   2.368   7.931   3.603
  339DIO     O218947   2.368   7.960   3.481
  339DIO    C1418948   2.239   7.949   3.670
  339DIO    C1518949   2.173   7.839   3.744
  339DIO     F518950   2.236   7.721   3.759
  339DIO    C1618951   2.042   7.854   3.805
  339DIO    C1718952   1.966   7.977   3.790
  339DIO    C1818953   2.035   8.093   3.733
  339DIO    C1918954   2.167   8.078   3.673
  339DIO     F618955   2.229   8.192   3.635
  339DIO    C2018956   1.826   7.990   3.843
  339DIO     O318957   1.756   7.865   3.852
  339DIO    C2118958   1.712   7.817   3.726
  339DIO    C2218959   1.623   7.920   3.656
  339DIO    C2318960   1.704   8.049   3.647
  339DIO     O418961   1.748   8.090   3.776
  339DIO    C2418962   1.491   7.946   3.731
  339DIO    C2518963   1.400   7.824   3.750
  339DIO    C2618964   1.362   7.754   3.620
  339DIO     H118965   3.082   8.036   3.724
  339DIO     H218966   3.041   7.666   3.485
  339DIO     H318967   2.864   7.648   3.706
  339DIO     H418968   2.613   7.661   3.733
  339DIO     H518969   2.613   8.070   3.579
  339DIO     H618970   2.004   7.772   3.865
  339DIO     H718971   1.992   8.192   3.739
  339DIO     H818972   1.835   8.026   3.946
  339DIO     H918973   1.799   7.793   3.664
  339DIO    H1018974   1.660   7.723   3.742
  339DIO    H1118975   1.601   7.885   3.555
  339DIO    H1218976   1.643   8.130   3.605
  339DIO    H1318977   1.790   8.037   3.580
  339DIO    H1418978   1.511   7.989   3.830
  339DIO    H1518979   1.434   8.022   3.675
  339DIO    H1618980   1.447   7.751   3.817
  339DIO    H1718981   1.308   7.857   3.800
  339DIO    H1818982   1.318   7.825   3.549
  339DIO    H1918983   1.448   7.707   3.573
  339DIO    H2018984   1.288   7.676   3.640
  340DIO     F118985   8.907   8.842   4.015
  340DIO     C118986   8.829   8.949   3.991
  340DIO     C218987   8.685   8.933   3.986
  340DIO     C318988   8.596   9.048   3.959
  340DIO     C418989   8.662   9.180   3.939
  340DIO     C518990   8.806   9.193   3.945
  340DIO     F218991   8.861   9.315   3.932
  340DIO     C618992   8.890   9.079   3.972
  340DIO     F318993   9.024   9.092   3.976
  340DIO     C718994   8.450   9.034   3.952
  340DIO     C818995   8.373   9.087   3.837
  340DIO     C918996   8.228   9.074   3.831
  340DIO    C1018997   8.155   9.015   3.942
  340DIO    C1118998   8.228   8.955   4.052
  340DIO    C1218999   8.372   8.966   4.058
  340DIO     F419000   8.437   8.914   4.164
  340DIO     O119001   8.023   8.984   3.919
  340DIO    C1319002   7.929   8.994   4.020
  340DIO     O219003   7.928   9.055   4.131
  340DIO    C1419004   7.800   8.935   3.984
  340DIO    C1519005   7.733   8.966   3.855
  340DIO     F519006   7.796   9.044   3.764
  340DIO    C1619007   7.603   8.914   3.820
  340DIO    C1719008   7.527   8.833   3.915
  340DIO    C1819009   7.596   8.787   4.034
  340DIO    C1919010   7.727   8.838   4.069
  340DIO     F619011   7.790   8.780   4.174
  340DIO    C2019012   7.386   8.788   3.884
  340DIO     O319013   7.316   8.874   3.793
  340DIO    C2119014   7.273   8.995   3.853
  340DIO    C2219015   7.184   8.966   3.974
  340DIO    C2319016   7.265   8.877   4.068
  340DIO     O419017   7.309   8.759   4.001
  340DIO    C2419018   7.051   8.897   3.937
  340DIO    C2519019   6.960   8.974   3.840
  340DIO    C2619020   6.922   9.113   3.889
  340DIO     H119021   8.642   8.835   4.002
  340DIO     H219022   8.601   9.269   3.929
  340DIO     H319023   8.424   9.133   3.754
  340DIO     H419024   8.173   9.105   3.743
  340DIO     H519025   8.174   8.907   4.132
  340DIO     H619026   7.564   8.934   3.720
  340DIO     H719027   7.553   8.710   4.097
  340DIO     H819028   7.396   8.692   3.831
  340DIO     H919029   7.359   9.055   3.883
  340DIO    H1019030   7.220   9.053   3.778
  340DIO    H1119031   7.161   9.060   4.026
  340DIO    H1219032   7.203   8.845   4.153
  340DIO    H1319033   7.351   8.931   4.109
  340DIO    H1419034   7.071   8.798   3.893
  340DIO    H1519035   6.995   8.878   4.029
  340DIO    H1619036   7.008   8.982   3.741
  340DIO    H1719037   6.869   8.915   3.825
  340DIO    H1819038   6.878   9.108   3.989
  340DIO    H1919039   7.008   9.179   3.892
  340DIO    H2019040   6.848   9.157   3.821
  341DIO     F119041   6.277   5.271   1.400
  341DIO     C119042   6.200   5.313   1.501
  341DIO     C219043   6.055   5.316   1.485
  341DIO     C319044   5.967   5.364   1.593
  341DIO     C419045   6.032   5.407   1.719
  341DIO     C519046   6.176   5.404   1.733
  341DIO     F219047   6.232   5.440   1.850
  341DIO     C619048   6.260   5.357   1.625
  341DIO     F319049   6.394   5.355   1.639
  341DIO     C719050   5.820   5.368   1.577
  341DIO     C819051   5.743   5.490   1.609
  341DIO     C919052   5.598   5.494   1.594
  341DIO    C1019053   5.526   5.374   1.557
  341DIO    C1119054   5.598   5.255   1.519
  341DIO    C1219055   5.742   5.252   1.531
  341DIO     F419056   5.807   5.138   1.499
  341DIO     O119057   5.394   5.391   1.522
  341DIO    C1319058   5.299   5.293   1.551
  341DIO     O219059   5.298   5.196   1.631
  341DIO    C1419060   5.170   5.318   1.486
  341DIO    C1519061   5.104   5.450   1.493
  341DIO     F519062   5.166   5.554   1.552
  341DIO    C1619063   4.973   5.476   1.435
  341DIO    C1719064   4.897   5.367   1.374
  341DIO    C1819065   4.966   5.241   1.350
  341DIO    C1919066   5.098   5.217   1.407
  341DIO     F619067   5.160   5.103   1.369
  341DIO    C2019068   4.756   5.389   1.323
  341DIO     O319069   4.687   5.495   1.391
  341DIO    C2119070   4.643   5.457   1.521
  341DIO    C2219071   4.554   5.333   1.515
  341DIO    C2319072   4.635   5.224   1.445
  341DIO     O419073   4.679   5.269   1.317
  341DIO    C2419074   4.421   5.358   1.440
  341DIO    C2519075   4.331   5.467   1.498
  341DIO    C2619076   4.292   5.444   1.643
  341DIO     H119077   6.013   5.281   1.391
  341DIO     H219078   5.972   5.434   1.804
  341DIO     H319079   5.795   5.581   1.639
  341DIO     H419080   5.543   5.586   1.609
  341DIO     H519081   5.544   5.167   1.486
  341DIO     H619082   4.935   5.577   1.436
  341DIO     H719083   4.923   5.165   1.286
  341DIO     H819084   4.766   5.423   1.219
  341DIO     H919085   4.730   5.439   1.585
  341DIO    H1019086   4.590   5.543   1.564
  341DIO    H1119087   4.532   5.300   1.617
  341DIO    H1219088   4.574   5.135   1.429
  341DIO    H1319089   4.721   5.194   1.505
  341DIO    H1419090   4.441   5.382   1.335
  341DIO    H1519091   4.365   5.263   1.439
  341DIO    H1619092   4.378   5.565   1.487
  341DIO    H1719093   4.239   5.471   1.437
  341DIO    H1819094   4.248   5.345   1.657
  341DIO    H1919095   4.379   5.454   1.709
  341DIO    H2019096   4.219   5.519   1.674
  342DIO     F119097   2.010   4.066   1.788
  342DIO     C119098   1.932   4.174   1.806
  342DIO     C219099   1.788   4.161   1.795
  342DIO     C319100   1.699   4.278   1.813
  342DIO     C419101   1.765   4.408   1.845
  342DIO     C519102   1.909   4.418   1.855
  342DIO     F219103   1.964   4.536   1.888
  342DIO     C619104   1.993   4.302   1.837
  342DIO     F319105   2.126   4.313   1.845
  342DIO     C719106   1.553   4.268   1.801
  342DIO     C819107   1.476   4.360   1.715
  342DIO     C919108   1.331   4.350   1.704
  342DIO    C1019109   1.258   4.254   1.785
  342DIO    C1119110   1.331   4.157   1.865
  342DIO    C1219111   1.475   4.165   1.874
  342DIO     F419112   1.540   4.077   1.953
  342DIO     O119113   1.126   4.234   1.752
  342DIO    C1319114   1.032   4.205   1.850
  342DIO     O219115   1.031   4.220   1.975
  342DIO    C1419116   0.902   4.164   1.794
  342DIO    C1519117   0.836   4.241   1.686
  342DIO     F519118   0.899   4.347   1.631
  342DIO    C1619119   0.705   4.206   1.634
  342DIO    C1719120   0.630   4.096   1.692
  342DIO    C1819121   0.698   4.008   1.786
  342DIO    C1919122   0.830   4.042   1.837
  342DIO     F619123   0.892   3.949   1.912
  342DIO    C2019124   0.489   4.065   1.646
  342DIO     O319125   0.419   4.179   1.594
  342DIO    C2119126   0.375   4.268   1.696
  342DIO    C2219127   0.287   4.196   1.797
  342DIO    C2319128   0.367   4.078   1.851
  342DIO     O419129   0.412   3.995   1.744
  342DIO    C2419130   0.154   4.146   1.736
  342DIO    C2519131   0.063   4.254   1.675
  342DIO    C2619132   0.025   4.364   1.773
  342DIO     H119133   1.745   4.064   1.774
  342DIO     H219134   1.704   4.494   1.868
  342DIO     H319135   1.527   4.434   1.655
  342DIO     H419136   1.276   4.412   1.635
  342DIO     H519137   1.276   4.082   1.921
  342DIO     H619138   0.667   4.262   1.549
  342DIO     H719139   0.655   3.913   1.815
  342DIO     H819140   0.499   3.996   1.562
  342DIO     H919141   0.462   4.313   1.745
  342DIO    H1019142   0.323   4.351   1.647
  342DIO    H1119143   0.264   4.264   1.880
  342DIO    H1219144   0.306   4.017   1.918
  342DIO    H1319145   0.453   4.113   1.909
  342DIO    H1419146   0.174   4.071   1.658
  342DIO    H1519147   0.097   4.094   1.815
  342DIO    H1619148   0.110   4.298   1.587
  342DIO    H1719149  -0.029   4.205   1.640
  342DIO    H1819150  -0.019   4.323   1.864
  342DIO    H1919151   0.111   4.425   1.800
  342DIO    H2019152  -0.049   4.431   1.726
  343DIO     F119153   1.216   2.093   5.883
  343DIO     C119154   1.139   2.137   5.984
  343DIO     C219155   0.995   2.139   5.967
  343DIO     C319156   0.906   2.190   6.074
  343DIO     C419157   0.971   2.236   6.199
  343DIO     C519158   1.116   2.233   6.213
  343DIO     F219159   1.171   2.271   6.329
  343DIO     C619160   1.199   2.183   6.106
  343DIO     F319161   1.333   2.182   6.120
  343DIO     C719162   0.760   2.194   6.058
  343DIO     C819163   0.682   2.317   6.087
  343DIO     C919164   0.538   2.320   6.072
  343DIO    C1019165   0.465   2.199   6.038
  343DIO    C1119166   0.538   2.079   6.002
  343DIO    C1219167   0.682   2.076   6.014
  343DIO     F419168   0.747   1.962   5.985
  343DIO     O119169   0.333   2.216   6.003
  343DIO    C1319170   0.238   2.118   6.033
  343DIO     O219171   0.238   2.023   6.116
  343DIO    C1419172   0.109   2.142   5.968
  343DIO    C1519173   0.043   2.274   5.972
  343DIO     F519174   0.106   2.379   6.029
  343DIO    C1619175  -0.088   2.298   5.914
  343DIO    C1719176  -0.164   2.189   5.855
  343DIO    C1819177  -0.095   2.062   5.834
  343DIO    C1919178   0.037   2.039   5.891
  343DIO     F619179   0.099   1.924   5.855
  343DIO    C2019180  -0.304   2.209   5.804
  343DIO     O319181  -0.374   2.316   5.869
  343DIO    C2119182  -0.418   2.282   6.000
  343DIO    C2219183  -0.507   2.158   5.997
  343DIO    C2319184  -0.426   2.047   5.929
  343DIO     O419185  -0.382   2.089   5.800
  343DIO    C2419186  -0.639   2.180   5.921
  343DIO    C2519187  -0.730   2.291   5.977
  343DIO    C2619188  -0.768   2.271   6.122
  343DIO     H119189   0.952   2.103   5.874
  343DIO     H219190   0.911   2.264   6.284
  343DIO     H319191   0.734   2.407   6.115
  343DIO     H419192   0.483   2.412   6.085
  343DIO     H519193   0.483   1.991   5.971
  343DIO     H619194  -0.126   2.400   5.913
  343DIO     H719195  -0.138   1.985   5.771
  343DIO     H819196  -0.295   2.241   5.699
  343DIO     H919197  -0.331   2.265   6.065
  343DIO    H1019198  -0.470   2.368   6.041
  343DIO    H1119199  -0.529   2.127   6.099
  343DIO    H1219200  -0.487   1.957   5.915
  343DIO    H1319201  -0.340   2.018   5.990
  343DIO    H1419202  -0.619   2.203   5.816
  343DIO    H1519203  -0.696   2.086   5.922
  343DIO    H1619204  -0.683   2.389   5.964
  343DIO    H1719205  -0.822   2.293   5.916
  343DIO    H1819206  -0.812   2.172   6.139
  343DIO    H1919207  -0.682   2.282   6.188
  343DIO    H2019208  -0.842   2.346   6.152
  344DIO     F119209   7.349   1.696   3.334
  344DIO     C119210   7.272   1.656   3.436
  344DIO     C219211   7.128   1.670   3.426
  344DIO     C319212   7.039   1.630   3.537
  344DIO     C419213   7.104   1.574   3.658
  344DIO     C519214   7.249   1.562   3.666
  344DIO     F219215   7.304   1.507   3.776
  344DIO     C619216   7.332   1.602   3.556
  344DIO     F319217   7.466   1.591   3.565
  344DIO     C719218   6.892   1.643   3.529
  344DIO     C819219   6.815   1.710   3.636
  344DIO     C919220   6.671   1.723   3.629
  344DIO    C1019221   6.598   1.662   3.519
  344DIO    C1119222   6.671   1.602   3.408
  344DIO    C1219223   6.815   1.591   3.415
  344DIO     F419224   6.880   1.531   3.313
  344DIO     O119225   6.466   1.698   3.505
  344DIO    C1319226   6.371   1.607   3.458
  344DIO     O219227   6.370   1.482   3.449
  344DIO    C1419228   6.242   1.671   3.429
  344DIO    C1519229   6.176   1.761   3.525
  344DIO     F519230   6.239   1.796   3.640
  344DIO    C1619231   6.045   1.819   3.501
  344DIO    C1719232   5.969   1.784   3.381
  344DIO    C1819233   6.038   1.709   3.277
  344DIO    C1919234   6.170   1.652   3.301
  344DIO     F619235   6.232   1.596   3.195
  344DIO    C2019236   5.829   1.834   3.360
  344DIO     O319237   5.759   1.864   3.482
  344DIO    C2119238   5.715   1.747   3.550
  344DIO    C2219239   5.626   1.661   3.460
  344DIO    C2319240   5.707   1.631   3.334
  344DIO     O419241   5.751   1.752   3.272
  344DIO    C2419242   5.494   1.731   3.422
  344DIO    C2519243   5.403   1.770   3.540
  344DIO    C2619244   5.364   1.653   3.629
  344DIO     H119245   7.085   1.709   3.335
  344DIO     H219246   7.044   1.534   3.739
  344DIO     H319247   6.867   1.755   3.720
  344DIO     H419248   6.616   1.779   3.703
  344DIO     H519249   6.616   1.561   3.324
  344DIO     H619250   6.007   1.892   3.572
  344DIO     H719251   5.995   1.698   3.178
  344DIO     H819252   5.838   1.931   3.308
  344DIO     H919253   5.802   1.690   3.584
  344DIO    H1019254   5.662   1.779   3.640
  344DIO    H1119255   5.604   1.567   3.511
  344DIO    H1219256   5.646   1.577   3.261
  344DIO    H1319257   5.793   1.567   3.357
  344DIO    H1419258   5.513   1.821   3.364
  344DIO    H1519259   5.437   1.664   3.357
  344DIO    H1619260   5.450   1.848   3.600
  344DIO    H1719261   5.311   1.814   3.499
  344DIO    H1819262   5.321   1.571   3.571
  344DIO    H1919263   5.451   1.614   3.684
  344DIO    H2019264   5.291   1.686   3.703
  345DIO     F119265   2.849   1.828   8.345
  345DIO     C119266   2.771   1.823   8.454
  345DIO     C219267   2.627   1.832   8.440
  345DIO     C319268   2.539   1.829   8.559
  345DIO     C419269   2.604   1.813   8.691
  345DIO     C519270   2.748   1.804   8.702
  345DIO     F219271   2.804   1.786   8.824
  345DIO     C619272   2.832   1.809   8.585
  345DIO     F319273   2.966   1.801   8.597
  345DIO     C719274   2.392   1.839   8.547
  345DIO     C819275   2.315   1.936   8.628
  345DIO     C919276   2.170   1.946   8.616
  345DIO    C1019277   2.098   1.854   8.531
  345DIO    C1119278   2.170   1.763   8.444
  345DIO    C1219279   2.314   1.755   8.454
  345DIO     F419280   2.379   1.666   8.376
  345DIO     O119281   1.966   1.884   8.507
  345DIO    C1319282   1.871   1.783   8.490
  345DIO     O219283   1.870   1.661   8.521
  345DIO    C1419284   1.742   1.834   8.443
  345DIO    C1519285   1.676   1.950   8.506
  345DIO     F519286   1.738   2.018   8.605
  345DIO    C1619287   1.545   1.998   8.465
  345DIO    C1719288   1.469   1.927   8.363
  345DIO    C1819289   1.538   1.823   8.287
  345DIO    C1919290   1.669   1.777   8.327
  345DIO     F619291   1.732   1.691   8.244
  345DIO    C2019292   1.328   1.969   8.327
  345DIO     O319293   1.259   2.034   8.433
  345DIO    C2119294   1.215   1.944   8.534
  345DIO    C2219295   1.126   1.835   8.475
  345DIO    C2319296   1.207   1.767   8.365
  345DIO     O419297   1.251   1.863   8.269
  345DIO    C2419298   0.993   1.890   8.418
  345DIO    C2519299   0.903   1.963   8.518
  345DIO    C2619300   0.864   1.880   8.639
  345DIO     H119301   2.585   1.842   8.341
  345DIO     H219302   2.543   1.801   8.780
  345DIO     H319303   2.367   2.005   8.694
  345DIO     H419304   2.115   2.022   8.670
  345DIO     H519305   2.116   1.698   8.377
  345DIO     H619306   1.507   2.089   8.510
  345DIO     H719307   1.495   1.783   8.196
  345DIO     H819308   1.338   2.044   8.248
  345DIO     H919309   1.302   1.900   8.585
  345DIO    H1019310   1.162   2.002   8.610
  345DIO    H1119311   1.104   1.761   8.553
  345DIO    H1219312   1.146   1.693   8.312
  345DIO    H1319313   1.293   1.714   8.406
  345DIO    H1419314   1.013   1.957   8.334
  345DIO    H1519315   0.937   1.805   8.376
  345DIO    H1619316   0.950   2.056   8.551
  345DIO    H1719317   0.811   1.992   8.465
  345DIO    H1819318   0.820   1.784   8.609
  345DIO    H1919319   0.951   1.860   8.703
  345DIO    H2019320   0.791   1.933   8.699
  346DIO     F119321   3.291  10.665   0.731
  346DIO     C119322   3.214  10.677   0.621
  346DIO     C219323   3.070  10.667   0.635
  346DIO     C319324   2.981  10.677   0.517
  346DIO     C419325   3.046  10.701   0.386
  346DIO     C519326   3.191  10.710   0.375
  346DIO     F219327   3.246  10.736   0.255
  346DIO     C619328   3.274  10.699   0.492
  346DIO     F319329   3.408  10.707   0.481
  346DIO     C719330   2.835  10.666   0.528
  346DIO     C819331   2.757  10.574   0.441
  346DIO     C919332   2.613  10.564   0.452
  346DIO    C1019333   2.540  10.651   0.543
  346DIO    C1119334   2.613  10.736   0.635
  346DIO    C1219335   2.757  10.745   0.626
  346DIO     F419336   2.822  10.829   0.709
  346DIO     O119337   2.408  10.619   0.565
  346DIO    C1319338   2.313  10.719   0.588
  346DIO     O219339   2.313  10.842   0.565
  346DIO    C1419340   2.184  10.665   0.632
  346DIO    C1519341   2.118  10.553   0.562
  346DIO     F519342   2.181  10.491   0.460
  346DIO    C1619343   1.987  10.503   0.600
  346DIO    C1719344   1.911  10.567   0.707
  346DIO    C1819345   1.980  10.666   0.789
  346DIO    C1919346   2.112  10.715   0.751
  346DIO     F619347   2.174  10.796   0.840
  346DIO    C2019348   1.771  10.524   0.740
  346DIO     O319349   1.701  10.464   0.630
  346DIO    C2119350   1.657  10.560   0.534
  346DIO    C2219351   1.568  10.666   0.600
  346DIO    C2319352   1.649  10.727   0.714
  346DIO     O419353   1.693  10.626   0.804
  346DIO    C2419354   1.436  10.608   0.654
  346DIO    C2519355   1.345  10.541   0.550
  346DIO    C2619356   1.307  10.631   0.434
  346DIO     H119357   3.027  10.651   0.733
  346DIO     H219358   2.986  10.719   0.298
  346DIO     H319359   2.809  10.510   0.371
  346DIO     H419360   2.558  10.491   0.394
  346DIO     H519361   2.558  10.797   0.706
  346DIO     H619362   1.949  10.415   0.550
  346DIO     H719363   1.937  10.701   0.882
  346DIO     H819364   1.780  10.443   0.814
  346DIO     H919365   1.744  10.607   0.487
  346DIO    H1019366   1.605  10.507   0.455
  346DIO    H1119367   1.546  10.745   0.527
  346DIO    H1219368   1.588  10.797   0.771
  346DIO    H1319369   1.735  10.783   0.676
  346DIO    H1419370   1.456  10.535   0.733
  346DIO    H1519371   1.379  10.690   0.701
  346DIO    H1619372   1.392  10.450   0.511
  346DIO    H1719373   1.253  10.508   0.601
  346DIO    H1819374   1.263  10.725   0.470
  346DIO    H1919375   1.393  10.655   0.371
  346DIO    H2019376   1.233  10.581   0.370
  347DIO     F119377   6.727   5.858   6.130
  347DIO     C119378   6.650   5.758   6.177
  347DIO     C219379   6.506   5.775   6.178
  347DIO     C319380   6.417   5.669   6.231
  347DIO     C419381   6.482   5.545   6.279
  347DIO     C519382   6.627   5.531   6.276
  347DIO     F219383   6.682   5.415   6.317
  347DIO     C619384   6.710   5.636   6.225
  347DIO     F319385   6.844   5.622   6.224
  347DIO     C719386   6.271   5.685   6.234
  347DIO     C819387   6.193   5.658   6.358
  347DIO     C919388   6.049   5.673   6.361
  347DIO    C1019389   5.976   5.705   6.240
  347DIO    C1119390   6.049   5.739   6.119
  347DIO    C1219391   6.193   5.726   6.116
  347DIO     F419392   6.258   5.753   6.001
  347DIO     O119393   5.844   5.741   6.255
  347DIO    C1319394   5.749   5.708   6.158
  347DIO     O219395   5.749   5.624   6.065
  347DIO    C1419396   5.620   5.774   6.181
  347DIO    C1519397   5.554   5.772   6.313
  347DIO     F519398   5.617   5.717   6.420
  347DIO    C1619399   5.423   5.831   6.336
  347DIO    C1719400   5.347   5.888   6.226
  347DIO    C1819401   5.416   5.906   6.098
  347DIO    C1919402   5.548   5.849   6.076
  347DIO     F619403   5.610   5.882   5.961
  347DIO    C2019404   5.207   5.939   6.245
  347DIO     O319405   5.137   5.876   6.353
  347DIO    C2119406   5.093   5.745   6.321
  347DIO    C2219407   5.004   5.745   6.197
  347DIO    C2319408   5.085   5.811   6.086
  347DIO     O419409   5.129   5.941   6.125
  347DIO    C2419410   4.872   5.822   6.218
  347DIO    C2519411   4.781   5.768   6.330
  347DIO    C2619412   4.743   5.622   6.313
  347DIO     H119413   6.463   5.867   6.140
  347DIO     H219414   6.422   5.460   6.309
  347DIO     H319415   6.245   5.632   6.449
  347DIO     H419416   5.994   5.662   6.454
  347DIO     H519417   5.994   5.768   6.030
  347DIO     H619418   5.385   5.834   6.437
  347DIO     H719419   5.373   5.968   6.020
  347DIO     H819420   5.216   6.045   6.275
  347DIO     H919421   5.180   5.680   6.306
  347DIO    H1019422   5.041   5.705   6.408
  347DIO    H1119423   4.982   5.642   6.168
  347DIO    H1219424   5.024   5.823   5.995
  347DIO    H1319425   5.171   5.749   6.058
  347DIO    H1419426   4.892   5.927   6.239
  347DIO    H1519427   4.815   5.819   6.124
  347DIO    H1619428   4.828   5.783   6.427
  347DIO    H1719429   4.689   5.828   6.331
  347DIO    H1819430   4.699   5.604   6.215
  347DIO    H1919431   4.829   5.556   6.325
  347DIO    H2019432   4.669   5.594   6.389
  348DIO     F119433   2.203   5.147   7.793
  348DIO     C119434   2.125   5.167   7.901
  348DIO     C219435   1.981   5.173   7.885
  348DIO     C319436   1.892   5.197   8.001
  348DIO     C419437   1.958   5.212   8.133
  348DIO     C519438   2.102   5.206   8.146
  348DIO     F219439   2.158   5.216   8.269
  348DIO     C619440   2.186   5.183   8.031
  348DIO     F319441   2.320   5.178   8.045
  348DIO     C719442   1.746   5.204   7.987
  348DIO     C819443   1.669   5.317   8.044
  348DIO     C919444   1.524   5.324   8.030
  348DIO    C1019445   1.452   5.214   7.969
  348DIO    C1119446   1.524   5.106   7.905
  348DIO    C1219447   1.668   5.100   7.916
  348DIO     F419448   1.733   4.996   7.861
  348DIO     O119449   1.319   5.238   7.938
  348DIO    C1319450   1.225   5.136   7.945
  348DIO     O219451   1.224   5.025   8.003
  348DIO    C1419452   1.096   5.175   7.887
  348DIO    C1519453   1.030   5.303   7.922
  348DIO     F519454   1.092   5.392   8.002
  348DIO    C1619455   0.899   5.339   7.871
  348DIO    C1719456   0.823   5.247   7.788
  348DIO    C1819457   0.892   5.128   7.738
  348DIO    C1919458   1.023   5.092   7.788
  348DIO     F619459   1.086   4.989   7.727
  348DIO    C2019460   0.682   5.279   7.743
  348DIO     O319461   0.613   5.368   7.831
  348DIO    C2119462   0.569   5.303   7.951
  348DIO    C2219463   0.480   5.184   7.919
  348DIO    C2319464   0.561   5.092   7.827
  348DIO     O419465   0.605   5.163   7.711
  348DIO    C2419466   0.347   5.223   7.850
  348DIO    C2519467   0.257   5.317   7.930
  348DIO    C2619468   0.218   5.265   8.067
  348DIO     H119469   1.939   5.159   7.786
  348DIO     H219470   1.897   5.220   8.223
  348DIO     H319471   1.720   5.399   8.092
  348DIO     H419472   1.469   5.410   8.064
  348DIO     H519473   1.470   5.027   7.855
  348DIO     H619474   0.861   5.438   7.894
  348DIO     H719475   0.849   5.068   7.659
  348DIO     H819476   0.692   5.334   7.649
  348DIO     H919477   0.656   5.272   8.010
  348DIO    H1019478   0.516   5.377   8.011
  348DIO    H1119479   0.457   5.129   8.011
  348DIO    H1219480   0.500   5.008   7.793
  348DIO    H1319481   0.647   5.049   7.880
  348DIO    H1419482   0.367   5.270   7.753
  348DIO    H1519483   0.291   5.131   7.829
  348DIO    H1619484   0.304   5.416   7.941
  348DIO    H1719485   0.165   5.334   7.872
  348DIO    H1819486   0.174   5.165   8.060
  348DIO    H1919487   0.305   5.260   8.134
  348DIO    H2019488   0.144   5.331   8.114
  349DIO     F119489   5.394   1.162   8.573
  349DIO     C119490   5.316   1.228   8.485
  349DIO     C219491   5.172   1.212   8.492
  349DIO     C319492   5.083   1.282   8.396
  349DIO     C419493   5.149   1.369   8.296
  349DIO     C519494   5.293   1.383   8.291
  349DIO     F219495   5.348   1.467   8.201
  349DIO     C619496   5.377   1.313   8.386
  349DIO     F319497   5.511   1.326   8.380
  349DIO     C719498   4.937   1.266   8.400
  349DIO     C819499   4.860   1.232   8.278
  349DIO     C919500   4.715   1.218   8.282
  349DIO    C1019501   4.642   1.246   8.405
  349DIO    C1119502   4.715   1.272   8.528
  349DIO    C1219503   4.859   1.284   8.524
  349DIO     F419504   4.924   1.314   8.639
  349DIO     O119505   4.510   1.207   8.408
  349DIO    C1319506   4.416   1.281   8.478
  349DIO     O219507   4.415   1.399   8.522
  349DIO    C1419508   4.287   1.212   8.489
  349DIO    C1519509   4.220   1.152   8.371
  349DIO     F519510   4.283   1.151   8.251
  349DIO    C1619511   4.090   1.090   8.378
  349DIO    C1719512   4.014   1.090   8.502
  349DIO    C1819513   4.083   1.133   8.624
  349DIO    C1919514   4.214   1.194   8.617
  349DIO     F619515   4.277   1.218   8.734
  349DIO    C2019516   3.873   1.036   8.509
  349DIO     O319517   3.803   1.041   8.384
  349DIO    C2119518   3.760   1.173   8.351
  349DIO    C2219519   3.671   1.230   8.461
  349DIO    C2319520   3.752   1.223   8.591
  349DIO     O419521   3.796   1.090   8.616
  349DIO    C2419522   3.538   1.153   8.478
  349DIO    C2519523   3.447   1.148   8.354
  349DIO    C2619524   3.409   1.285   8.301
  349DIO     H119525   5.129   1.149   8.568
  349DIO     H219526   5.088   1.430   8.229
  349DIO     H319527   4.911   1.213   8.185
  349DIO     H419528   4.660   1.185   8.195
  349DIO     H519529   4.661   1.288   8.620
  349DIO     H619530   4.051   1.040   8.290
  349DIO     H719531   4.040   1.115   8.721
  349DIO     H819532   3.883   0.929   8.532
  349DIO     H919533   3.846   1.238   8.334
  349DIO    H1019534   3.707   1.168   8.256
  349DIO    H1119535   3.648   1.335   8.439
  349DIO    H1219536   3.690   1.255   8.676
  349DIO    H1319537   3.838   1.291   8.587
  349DIO    H1419538   3.558   1.049   8.509
  349DIO    H1519539   3.482   1.199   8.560
  349DIO    H1619540   3.495   1.090   8.275
  349DIO    H1719541   3.356   1.094   8.381
  349DIO    H1819542   3.365   1.347   8.380
  349DIO    H1919543   3.495   1.338   8.260
  349DIO    H2019544   3.335   1.275   8.221
  350DIO     F119545   7.991   9.471   4.220
  350DIO     C119546   7.913   9.545   4.138
  350DIO     C219547   7.769   9.529   4.144
  350DIO     C319548   7.680   9.606   4.054
  350DIO     C419549   7.746   9.701   3.961
  350DIO     C519550   7.890   9.715   3.958
  350DIO     F219551   7.946   9.806   3.875
  350DIO     C619552   7.974   9.638   4.046
  350DIO     F319553   8.108   9.651   4.042
  350DIO     C719554   7.534   9.590   4.057
  350DIO     C819555   7.457   9.566   3.933
  350DIO     C919556   7.312   9.551   3.935
  350DIO    C1019557   7.240   9.569   4.060
  350DIO    C1119558   7.312   9.585   4.184
  350DIO    C1219559   7.456   9.598   4.182
  350DIO     F419560   7.521   9.618   4.298
  350DIO     O119561   7.107   9.530   4.059
  350DIO    C1319562   7.013   9.598   4.136
  350DIO     O219563   7.012   9.712   4.189
  350DIO    C1419564   6.884   9.529   4.141
  350DIO    C1519565   6.817   9.478   4.018
  350DIO     F519566   6.880   9.487   3.899
  350DIO    C1619567   6.687   9.416   4.020
  350DIO    C1719568   6.611   9.406   4.144
  350DIO    C1819569   6.680   9.439   4.269
  350DIO    C1919570   6.811   9.500   4.267
  350DIO     F619571   6.874   9.515   4.385
  350DIO    C2019572   6.470   9.351   4.146
  350DIO     O319573   6.400   9.367   4.022
  350DIO    C2119574   6.357   9.501   4.000
  350DIO    C2219575   6.268   9.548   4.115
  350DIO    C2319576   6.349   9.531   4.243
  350DIO     O419577   6.393   9.397   4.258
  350DIO    C2419578   6.135   9.470   4.125
  350DIO    C2519579   6.044   9.476   4.002
  350DIO    C2619580   6.006   9.617   3.960
  350DIO     H119581   7.727   9.459   4.215
  350DIO     H219582   7.685   9.767   3.900
  350DIO     H319583   7.508   9.554   3.838
  350DIO     H419584   7.257   9.525   3.846
  350DIO     H519585   7.258   9.593   4.277
  350DIO     H619586   6.649   9.373   3.928
  350DIO     H719587   6.637   9.413   4.365
  350DIO     H819588   6.480   9.243   4.160
  350DIO     H919589   6.443   9.566   3.989
  350DIO    H1019590   6.304   9.503   3.904
  350DIO    H1119591   6.245   9.655   4.101
  350DIO    H1219592   6.288   9.556   4.331
  350DIO    H1319593   6.435   9.599   4.244
  350DIO    H1419594   6.155   9.365   4.147
  350DIO    H1519595   6.079   9.509   4.211
  350DIO    H1619596   6.092   9.424   3.917
  350DIO    H1719597   5.953   9.420   4.024
  350DIO    H1819598   5.962   9.672   4.043
  350DIO    H1919599   6.093   9.672   3.923
  350DIO    H2019600   5.932   9.613   3.879
  351DIO     F119601   8.317   0.194  10.068
  351DIO     C119602   8.240   0.300  10.099
  351DIO     C219603   8.096   0.288  10.087
  351DIO     C319604   8.007   0.403  10.118
  351DIO     C419605   8.072   0.527  10.165
  351DIO     C519606   8.217   0.536  10.176
  351DIO     F219607   8.272   0.650  10.223
  351DIO     C619608   8.300   0.423  10.144
  351DIO     F319609   8.434   0.433  10.155
  351DIO     C719610   7.860   0.393  10.105
  351DIO     C819611   7.783   0.495  10.031
  351DIO     C919612   7.639   0.486  10.018
  351DIO    C1019613   7.566   0.382  10.088
  351DIO    C1119614   7.639   0.276  10.156
  351DIO    C1219615   7.783   0.283  10.166
  351DIO     F419616   7.848   0.187  10.234
  351DIO     O119617   7.434   0.365  10.052
  351DIO    C1319618   7.339   0.325  10.147
  351DIO     O219619   7.338   0.326  10.272
  351DIO    C1419620   7.210   0.291  10.086
  351DIO    C1519621   7.144   0.380   9.988
  351DIO     F519622   7.207   0.492   9.945
  351DIO    C1619623   7.013   0.352   9.932
  351DIO    C1719624   6.937   0.235   9.976
  351DIO    C1819625   7.006   0.137  10.059
  351DIO    C1919626   7.138   0.165  10.114
  351DIO     F619627   7.200   0.064  10.178
  351DIO    C2019628   6.797   0.210   9.928
  351DIO     O319629   6.727   0.329   9.889
  351DIO    C2119630   6.683   0.406  10.000
  351DIO    C2219631   6.594   0.323  10.093
  351DIO    C2319632   6.675   0.200  10.132
  351DIO     O419633   6.719   0.129  10.017
  351DIO    C2419634   6.462   0.280  10.026
  351DIO    C2519635   6.371   0.394   9.979
  351DIO    C2619636   6.332   0.492  10.088
  351DIO     H119637   8.053   0.194  10.054
  351DIO     H219638   8.012   0.611  10.199
  351DIO     H319639   7.835   0.575   9.980
  351DIO     H419640   7.584   0.556   9.957
  351DIO     H519641   7.584   0.195  10.203
  351DIO     H619642   6.975   0.417   9.854
  351DIO     H719643   6.963   0.039  10.077
  351DIO     H819644   6.806   0.151   9.836
  351DIO     H919645   6.770   0.445  10.055
  351DIO    H1019646   6.630   0.494   9.962
  351DIO    H1119647   6.572   0.381  10.183
  351DIO    H1219648   6.614   0.131  10.192
  351DIO    H1319649   6.761   0.227  10.194
  351DIO    H1419650   6.481   0.215   9.940
  351DIO    H1519651   6.405   0.220  10.098
  351DIO    H1619652   6.418   0.448   9.896
  351DIO    H1719653   6.279   0.350   9.937
  351DIO    H1819654   6.289   0.441  10.174
  351DIO    H1919655   6.419   0.550  10.123
  351DIO    H2019656   6.259   0.564  10.050
  352DIO     F119657   1.822  10.609   7.196
  352DIO     C119658   1.744  10.700   7.257
  352DIO     C219659   1.600  10.693   7.242
  352DIO     C319660   1.511  10.793   7.306
  352DIO     C419661   1.577  10.897   7.388
  352DIO     C519662   1.721  10.902   7.402
  352DIO     F219663   1.776  10.997   7.481
  352DIO     C619664   1.805  10.804   7.337
  352DIO     F319665   1.938  10.811   7.350
  352DIO     C719666   1.365  10.788   7.291
  352DIO     C819667   1.288  10.907   7.251
  352DIO     C919668   1.143  10.903   7.236
  352DIO    C1019669   1.070  10.782   7.271
  352DIO    C1119670   1.143  10.660   7.304
  352DIO    C1219671   1.287  10.665   7.316
  352DIO     F419672   1.352  10.552   7.351
  352DIO     O119673   0.938  10.777   7.232
  352DIO    C1319674   0.844  10.710   7.310
  352DIO     O219675   0.843  10.673   7.430
  352DIO    C1419676   0.714  10.696   7.242
  352DIO    C1519677   0.648  10.811   7.176
  352DIO     F519678   0.711  10.930   7.168
  352DIO    C1619679   0.517  10.800   7.114
  352DIO    C1719680   0.442  10.676   7.121
  352DIO    C1819681   0.510  10.557   7.170
  352DIO    C1919682   0.642  10.568   7.231
  352DIO     F619683   0.704  10.452   7.261
  352DIO    C2019684   0.301  10.667   7.067
  352DIO     O319685   0.231  10.792   7.066
  352DIO    C2119686   0.187  10.832   7.195
  352DIO    C2219687   0.099  10.725   7.258
  352DIO    C2319688   0.179  10.595   7.258
  352DIO     O419689   0.224  10.562   7.127
  352DIO    C2419690  -0.034  10.704   7.182
  352DIO    C2519691  -0.125  10.827   7.171
  352DIO    C2619692  -0.163  10.887   7.305
  352DIO     H119693   1.557  10.613   7.182
  352DIO     H219694   1.516  10.967   7.445
  352DIO     H319695   1.339  10.999   7.226
  352DIO     H419696   1.088  10.988   7.199
  352DIO     H519697   1.088  10.569   7.324
  352DIO     H619698   0.479  10.886   7.059
  352DIO     H719699   0.467  10.459   7.158
  352DIO     H819700   0.311  10.638   6.961
  352DIO     H919701   0.274  10.852   7.259
  352DIO    H1019702   0.135  10.927   7.185
  352DIO    H1119703   0.076  10.752   7.361
  352DIO    H1219704   0.118  10.512   7.294
  352DIO    H1319705   0.265  10.603   7.326
  352DIO    H1419706  -0.014  10.667   7.080
  352DIO    H1519707  -0.091  10.624   7.232
  352DIO    H1619708  -0.078  10.903   7.108
  352DIO    H1719709  -0.217  10.797   7.118
  352DIO    H1819710  -0.207  10.812   7.371
  352DIO    H1919711  -0.077  10.932   7.355
  352DIO    H2019712  -0.237  10.967   7.290
  353DIO     F119713   7.149   0.208   2.316
  353DIO     C119714   7.071   0.107   2.272
  353DIO     C219715   6.927   0.117   2.286
  353DIO     C319716   6.838   0.007   2.241
  353DIO     C419717   6.904  -0.111   2.181
  353DIO     C519718   7.048  -0.118   2.168
  353DIO     F219719   7.104  -0.226   2.108
  353DIO     C619720   7.132  -0.010   2.213
  353DIO     F319721   7.266  -0.018   2.202
  353DIO     C719722   6.692   0.015   2.255
  353DIO     C819723   6.615  -0.095   2.317
  353DIO     C919724   6.470  -0.088   2.331
  353DIO    C1019725   6.398   0.024   2.274
  353DIO    C1119726   6.470   0.138   2.219
  353DIO    C1219727   6.614   0.132   2.208
  353DIO     F419728   6.679   0.236   2.152
  353DIO     O119729   6.265   0.037   2.311
  353DIO    C1319730   6.171   0.088   2.223
  353DIO     O219731   6.170   0.102   2.098
  353DIO    C1419732   6.042   0.114   2.287
  353DIO    C1519733   5.975   0.014   2.373
  353DIO     F519734   6.038  -0.102   2.403
  353DIO    C1619735   5.845   0.036   2.432
  353DIO    C1719736   5.769   0.157   2.402
  353DIO    C1819737   5.838   0.264   2.331
  353DIO    C1919738   5.969   0.243   2.274
  353DIO     F619739   6.032   0.351   2.223
  353DIO    C2019740   5.628   0.176   2.454
  353DIO     O319741   5.558   0.053   2.478
  353DIO    C2119742   5.515  -0.010   2.358
  353DIO    C2219743   5.426   0.083   2.276
  353DIO    C2319744   5.507   0.211   2.252
  353DIO     O419745   5.551   0.267   2.375
  353DIO    C2419746   5.293   0.118   2.347
  353DIO    C2519747   5.202  -0.001   2.381
  353DIO    C2619748   5.164  -0.085   2.261
  353DIO     H119749   6.885   0.207   2.330
  353DIO     H219750   6.843  -0.190   2.137
  353DIO     H319751   6.666  -0.181   2.358
  353DIO     H419752   6.415  -0.164   2.383
  353DIO     H519753   6.416   0.224   2.182
  353DIO     H619754   5.807  -0.038   2.502
  353DIO     H719755   5.795   0.363   2.326
  353DIO     H819756   5.638   0.223   2.552
  353DIO     H919757   5.601  -0.042   2.299
  353DIO    H1019758   5.462  -0.102   2.386
  353DIO    H1119759   5.403   0.037   2.180
  353DIO    H1219760   5.446   0.286   2.201
  353DIO    H1319761   5.593   0.190   2.187
  353DIO    H1419762   5.313   0.173   2.440
  353DIO    H1519763   5.237   0.187   2.283
  353DIO    H1619764   5.250  -0.064   2.457
  353DIO    H1719765   5.111   0.038   2.427
  353DIO    H1819766   5.120  -0.024   2.182
  353DIO    H1919767   5.251  -0.138   2.220
  353DIO    H2019768   5.090  -0.161   2.290
  354DIO     F119769   8.603   3.496   8.902
  354DIO     C119770   8.525   3.391   8.933
  354DIO     C219771   8.381   3.407   8.937
  354DIO     C319772   8.292   3.294   8.973
  354DIO     C419773   8.358   3.165   9.002
  354DIO     C519774   8.502   3.151   8.997
  354DIO     F219775   8.557   3.030   9.020
  354DIO     C619776   8.586   3.263   8.962
  354DIO     F319777   8.720   3.249   8.959
  354DIO     C719778   8.146   3.309   8.979
  354DIO     C819779   8.069   3.264   9.097
  354DIO     C919780   7.924   3.278   9.103
  354DIO    C1019781   7.851   3.328   8.987
  354DIO    C1119782   7.924   3.381   8.873
  354DIO    C1219783   8.068   3.369   8.868
  354DIO     F419784   8.133   3.413   8.759
  354DIO     O119785   7.719   3.361   9.008
  354DIO    C1319786   7.625   3.344   8.907
  354DIO     O219787   7.624   3.275   8.802
  354DIO    C1419788   7.496   3.406   8.940
  354DIO    C1519789   7.429   3.384   9.070
  354DIO     F519790   7.492   3.313   9.167
  354DIO    C1619791   7.299   3.438   9.102
  354DIO    C1719792   7.223   3.512   9.001
  354DIO    C1819793   7.292   3.549   8.878
  354DIO    C1919794   7.423   3.496   8.848
  354DIO     F619795   7.486   3.546   8.739
  354DIO    C2019796   7.082   3.559   9.029
  354DIO     O319797   7.012   3.481   9.126
  354DIO    C2119798   6.969   3.355   9.074
  354DIO    C2219799   6.880   3.375   8.952
  354DIO    C2319800   6.961   3.457   8.851
  354DIO     O419801   7.005   3.579   8.910
  354DIO    C2419802   6.747   3.447   8.984
  354DIO    C2519803   6.656   3.377   9.086
  354DIO    C2619804   6.618   3.235   9.047
  354DIO     H119805   8.338   3.504   8.914
  354DIO     H219806   8.297   3.076   9.019
  354DIO     H319807   8.120   3.224   9.183
  354DIO     H419808   7.869   3.253   9.192
  354DIO     H519809   7.870   3.423   8.789
  354DIO     H619810   7.260   3.426   9.203
  354DIO     H719811   7.249   3.622   8.810
  354DIO     H819812   7.092   3.659   9.074
  354DIO     H919813   7.055   3.293   9.049
  354DIO    H1019814   6.916   3.303   9.154
  354DIO    H1119815   6.857   3.278   8.907
  354DIO    H1219816   6.899   3.483   8.764
  354DIO    H1319817   7.047   3.400   8.814
  354DIO    H1419818   6.767   3.549   9.021
  354DIO    H1519819   6.691   3.459   8.891
  354DIO    H1619820   6.704   3.377   9.185
  354DIO    H1719821   6.565   3.437   9.097
  354DIO    H1819822   6.574   3.232   8.947
  354DIO    H1919823   6.704   3.168   9.049
  354DIO    H2019824   6.544   3.196   9.118
  355DIO     F119825  10.097   4.768   2.820
  355DIO     C119826  10.020   4.705   2.729
  355DIO     C219827   9.876   4.707   2.746
  355DIO     C319828   9.787   4.637   2.650
  355DIO     C419829   9.852   4.569   2.536
  355DIO     C519830   9.997   4.570   2.521
  355DIO     F219831  10.052   4.510   2.414
  355DIO     C619832  10.080   4.638   2.617
  355DIO     F319833  10.214   4.636   2.603
  355DIO     C719834   9.641   4.636   2.666
  355DIO     C819835   9.563   4.510   2.660
  355DIO     C919836   9.419   4.509   2.675
  355DIO    C1019837   9.346   4.634   2.687
  355DIO    C1119838   9.419   4.759   2.700
  355DIO    C1219839   9.563   4.760   2.688
  355DIO     F419840   9.628   4.878   2.695
  355DIO     O119841   9.214   4.625   2.725
  355DIO    C1319842   9.119   4.715   2.677
  355DIO     O219843   9.119   4.794   2.578
  355DIO    C1419844   8.990   4.704   2.745
  355DIO    C1519845   8.924   4.573   2.765
  355DIO     F519846   8.987   4.459   2.729
  355DIO    C1619847   8.793   4.560   2.827
  355DIO    C1719848   8.717   4.679   2.865
  355DIO    C1819849   8.786   4.807   2.862
  355DIO    C1919850   8.918   4.819   2.802
  355DIO     F619851   8.980   4.938   2.816
  355DIO    C2019852   8.577   4.668   2.919
  355DIO     O319853   8.507   4.551   2.875
  355DIO    C2119854   8.463   4.561   2.740
  355DIO    C2219855   8.374   4.683   2.720
  355DIO    C2319856   8.455   4.804   2.767
  355DIO     O419857   8.499   4.787   2.901
  355DIO    C2419858   8.242   4.675   2.798
  355DIO    C2519859   8.151   4.556   2.764
  355DIO    C2619860   8.113   4.548   2.617
  355DIO     H119861   9.833   4.759   2.831
  355DIO     H219862   9.792   4.525   2.457
  355DIO     H319863   9.615   4.416   2.650
  355DIO     H419864   9.364   4.416   2.680
  355DIO     H519865   9.364   4.852   2.714
  355DIO     H619866   8.755   4.461   2.847
  355DIO     H719867   8.743   4.894   2.910
  355DIO     H819868   8.586   4.656   3.028
  355DIO     H919869   8.550   4.565   2.673
  355DIO    H1019870   8.411   4.468   2.715
  355DIO    H1119871   8.352   4.695   2.613
  355DIO    H1219872   8.394   4.895   2.763
  355DIO    H1319873   8.541   4.821   2.701
  355DIO    H1419874   8.262   4.672   2.906
  355DIO    H1519875   8.185   4.767   2.780
  355DIO    H1619876   8.198   4.462   2.795
  355DIO    H1719877   8.059   4.565   2.824
  355DIO    H1819878   8.069   4.642   2.583
  355DIO    H1919879   8.199   4.525   2.554
  355DIO    H2019880   8.039   4.469   2.602
  356DIO     F119881   9.744   3.927   8.791
  356DIO     C119882   9.667   3.831   8.844
  356DIO     C219883   9.523   3.848   8.845
  356DIO     C319884   9.434   3.745   8.904
  356DIO     C419885   9.499   3.625   8.960
  356DIO     C519886   9.644   3.610   8.958
  356DIO     F219887   9.699   3.497   9.006
  356DIO     C619888   9.727   3.712   8.900
  356DIO     F319889   9.861   3.698   8.900
  356DIO     C719890   9.287   3.761   8.906
  356DIO     C819891   9.210   3.742   9.031
  356DIO     C919892   9.066   3.757   9.034
  356DIO    C1019893   8.993   3.782   8.910
  356DIO    C1119894   9.065   3.808   8.787
  356DIO    C1219895   9.210   3.795   8.786
  356DIO     F419896   9.274   3.815   8.669
  356DIO     O119897   8.861   3.818   8.924
  356DIO    C1319898   8.766   3.780   8.829
  356DIO     O219899   8.765   3.690   8.741
  356DIO    C1419900   8.637   3.847   8.847
  356DIO    C1519901   8.571   3.853   8.980
  356DIO     F519902   8.633   3.805   9.089
  356DIO    C1619903   8.440   3.913   8.999
  356DIO    C1719904   8.364   3.964   8.885
  356DIO    C1819905   8.433   3.974   8.757
  356DIO    C1919906   8.565   3.915   8.738
  356DIO     F619907   8.627   3.941   8.621
  356DIO    C2019908   8.224   4.016   8.901
  356DIO     O319909   8.154   3.960   9.013
  356DIO    C2119910   8.110   3.827   8.989
  356DIO    C2219911   8.021   3.820   8.865
  356DIO    C2319912   8.102   3.878   8.750
  356DIO     O419913   8.146   4.010   8.781
  356DIO    C2419914   7.888   3.897   8.882
  356DIO    C2519915   7.798   3.850   8.996
  356DIO    C2619916   7.759   3.704   8.989
  356DIO     H119917   9.480   3.937   8.801
  356DIO     H219918   9.439   3.542   8.995
  356DIO     H319919   9.262   3.722   9.124
  356DIO     H419920   9.010   3.752   9.126
  356DIO     H519921   9.011   3.831   8.697
  356DIO     H619922   8.402   3.923   9.100
  356DIO     H719923   8.390   4.030   8.675
  356DIO     H819924   8.233   4.123   8.924
  356DIO     H919925   8.197   3.761   8.978
  356DIO    H1019926   8.057   3.792   9.078
  356DIO    H1119927   7.999   3.715   8.843
  356DIO    H1219928   8.041   3.884   8.659
  356DIO    H1319929   8.188   3.815   8.726
  356DIO    H1419930   7.908   4.004   8.896
  356DIO    H1519931   7.832   3.888   8.788
  356DIO    H1619932   7.845   3.871   9.093
  356DIO    H1719933   7.706   3.911   8.994
  356DIO    H1819934   7.715   3.679   8.892
  356DIO    H1919935   7.846   3.639   9.005
  356DIO    H2019936   7.686   3.680   9.066
  357DIO     F119937   7.630   4.197   2.541
  357DIO     C119938   7.552   4.232   2.436
  357DIO     C219939   7.408   4.220   2.448
  357DIO     C319940   7.319   4.255   2.335
  357DIO     C419941   7.385   4.307   2.212
  357DIO     C519942   7.529   4.319   2.204
  357DIO     F219943   7.585   4.370   2.092
  357DIO     C619944   7.613   4.282   2.315
  357DIO     F319945   7.747   4.293   2.306
  357DIO     C719946   7.173   4.242   2.343
  357DIO     C819947   7.096   4.172   2.239
  357DIO     C919948   6.951   4.159   2.247
  357DIO    C1019949   6.879   4.224   2.354
  357DIO    C1119950   6.951   4.288   2.463
  357DIO    C1219951   7.095   4.298   2.456
  357DIO     F419952   7.160   4.362   2.555
  357DIO     O119953   6.746   4.188   2.369
  357DIO    C1319954   6.652   4.280   2.413
  357DIO     O219955   6.651   4.406   2.418
  357DIO    C1419956   6.523   4.218   2.445
  357DIO    C1519957   6.456   4.124   2.352
  357DIO     F519958   6.519   4.086   2.238
  357DIO    C1619959   6.326   4.067   2.378
  357DIO    C1719960   6.250   4.107   2.496
  357DIO    C1819961   6.319   4.186   2.598
  357DIO    C1919962   6.450   4.242   2.572
  357DIO     F619963   6.513   4.301   2.676
  357DIO    C2019964   6.109   4.057   2.519
  357DIO     O319965   6.039   4.023   2.399
  357DIO    C2119966   5.996   4.138   2.326
  357DIO    C2219967   5.907   4.226   2.413
  357DIO    C2319968   5.988   4.261   2.538
  357DIO     O419969   6.032   4.143   2.604
  357DIO    C2419970   5.774   4.158   2.453
  357DIO    C2519971   5.683   4.115   2.337
  357DIO    C2619972   5.645   4.229   2.244
  357DIO     H119973   7.366   4.183   2.540
  357DIO     H219974   7.324   4.344   2.130
  357DIO     H319975   7.147   4.124   2.156
  357DIO     H419976   6.896   4.100   2.175
  357DIO     H519977   6.897   4.332   2.545
  357DIO     H619978   6.288   3.992   2.310
  357DIO     H719979   6.276   4.200   2.696
  357DIO     H819980   6.119   3.963   2.574
  357DIO     H919981   6.082   4.194   2.290
  357DIO    H1019982   5.943   4.103   2.237
  357DIO    H1119983   5.884   4.319   2.359
  357DIO    H1219984   5.927   4.318   2.609
  357DIO    H1319985   6.074   4.324   2.513
  357DIO    H1419986   5.794   4.070   2.515
  357DIO    H1519987   5.718   4.228   2.517
  357DIO    H1619988   5.731   4.035   2.280
  357DIO    H1719989   5.592   4.073   2.380
  357DIO    H1819990   5.601   4.312   2.299
  357DIO    H1919991   5.732   4.266   2.188
  357DIO    H2019992   5.571   4.194   2.171
  358DIO     F119993   2.433  -0.790   6.889
  358DIO     C119994   2.355  -0.683   6.912
  358DIO     C219995   2.211  -0.695   6.901
  358DIO     C319996   2.122  -0.579   6.923
  358DIO     C419997   2.188  -0.451   6.959
  358DIO     C519998   2.332  -0.441   6.970
  358DIO     F219999   2.387  -0.324   7.007
  358DIO     C620000   2.416  -0.557   6.947
  358DIO     F320001   2.549  -0.546   6.956
  358DIO     C720002   1.976  -0.589   6.910
  358DIO     C820003   1.899  -0.494   6.828
  358DIO     C920004   1.754  -0.503   6.816
  358DIO    C1020005   1.681  -0.602   6.894
  358DIO    C1120006   1.754  -0.702   6.970
  358DIO    C1220007   1.898  -0.694   6.979
  358DIO     F420008   1.963  -0.785   7.055
  358DIO     O120009   1.549  -0.621   6.860
  358DIO    C1320010   1.455  -0.654   6.957
  358DIO     O220011   1.454  -0.643   7.082
  358DIO    C1420012   1.325  -0.693   6.899
  358DIO    C1520013   1.259  -0.611   6.795
  358DIO     F520014   1.322  -0.504   6.743
  358DIO    C1620015   1.128  -0.644   6.741
  358DIO    C1720016   1.053  -0.757   6.795
  358DIO    C1820017   1.121  -0.848   6.885
  358DIO    C1920018   1.253  -0.816   6.937
  358DIO     F620019   1.315  -0.912   7.009
  358DIO    C2020020   0.912  -0.786   6.748
  358DIO     O320021   0.842  -0.670   6.700
  358DIO    C2120022   0.798  -0.585   6.805
  358DIO    C2220023   0.710  -0.660   6.903
  358DIO    C2320024   0.790  -0.780   6.953
  358DIO     O420025   0.835  -0.860   6.843
  358DIO    C2420026   0.577  -0.708   6.841
  358DIO    C2520027   0.486  -0.598   6.784
  358DIO    C2620028   0.448  -0.492   6.885
  358DIO     H120029   2.168  -0.792   6.875
  358DIO     H220030   2.127  -0.365   6.986
  358DIO     H320031   1.950  -0.418   6.771
  358DIO     H420032   1.699  -0.439   6.749
  358DIO     H520033   1.699  -0.779   7.023
  358DIO     H620034   1.090  -0.586   6.658
  358DIO     H720035   1.078  -0.944   6.910
  358DIO     H820036   0.922  -0.852   6.661
  358DIO     H920037   0.885  -0.542   6.856
  358DIO    H1020038   0.746  -0.500   6.760
  358DIO    H1120039   0.687  -0.596   6.989
  358DIO    H1220040   0.729  -0.844   7.017
  358DIO    H1320041   0.876  -0.748   7.012
  358DIO    H1420042   0.597  -0.780   6.760
  358DIO    H1520043   0.520  -0.763   6.917
  358DIO    H1620044   0.533  -0.551   6.697
  358DIO    H1720045   0.394  -0.646   6.746
  358DIO    H1820046   0.404  -0.537   6.975
  358DIO    H1920047   0.534  -0.432   6.915
  358DIO    H2020048   0.374  -0.424   6.842
  359DIO     F120049   5.600   6.093  -0.784
  359DIO     C120050   5.522   6.107  -0.675
  359DIO     C220051   5.378   6.114  -0.690
  359DIO     C320052   5.289   6.131  -0.573
  359DIO     C420053   5.355   6.139  -0.441
  359DIO     C520054   5.499   6.132  -0.428
  359DIO     F220055   5.555   6.136  -0.305
  359DIO     C620056   5.583   6.116  -0.544
  359DIO     F320057   5.717   6.111  -0.531
  359DIO     C720058   5.143   6.140  -0.587
  359DIO     C820059   5.066   6.249  -0.524
  359DIO     C920060   4.921   6.257  -0.537
  359DIO    C1020061   4.849   6.151  -0.605
  359DIO    C1120062   4.921   6.046  -0.674
  359DIO    C1220063   5.065   6.040  -0.663
  359DIO     F420064   5.130   5.938  -0.724
  359DIO     O120065   4.716   6.177  -0.634
  359DIO    C1320066   4.622   6.074  -0.633
  359DIO     O220067   4.621   5.959  -0.581
  359DIO    C1420068   4.493   6.116  -0.688
  359DIO    C1520069   4.427   6.242  -0.646
  359DIO     F520070   4.489   6.326  -0.561
  359DIO    C1620071   4.296   6.281  -0.695
  359DIO    C1720072   4.220   6.194  -0.783
  359DIO    C1820073   4.289   6.078  -0.840
  359DIO    C1920074   4.420   6.039  -0.792
  359DIO     F620075   4.483   5.940  -0.859
  359DIO    C2020076   4.079   6.228  -0.826
  359DIO     O320077   4.010   6.312  -0.733
  359DIO    C2120078   3.966   6.241  -0.618
  359DIO    C2220079   3.877   6.123  -0.656
  359DIO    C2320080   3.958   6.037  -0.753
  359DIO     O420081   4.002   6.114  -0.865
  359DIO    C2420082   3.744   6.166  -0.722
  359DIO    C2520083   3.654   6.256  -0.637
  359DIO    C2620084   3.615   6.195  -0.503
  359DIO     H120085   5.336   6.106  -0.790
  359DIO     H220086   5.294   6.142  -0.351
  359DIO     H320087   5.117   6.328  -0.471
  359DIO     H420088   4.866   6.341  -0.498
  359DIO     H520089   4.867   5.970  -0.729
  359DIO     H620090   4.258   6.379  -0.667
  359DIO     H720091   4.246   6.022  -0.922
  359DIO     H820092   4.089   6.288  -0.917
  359DIO     H920093   4.053   6.206  -0.560
  359DIO    H1020094   3.913   6.311  -0.553
  359DIO    H1120095   3.854   6.064  -0.567
  359DIO    H1220096   3.897   5.955  -0.792
  359DIO    H1320097   4.044   5.991  -0.703
  359DIO    H1420098   3.764   6.218  -0.817
  359DIO    H1520099   3.688   6.076  -0.749
  359DIO    H1620100   3.701   6.353  -0.621
  359DIO    H1720101   3.562   6.276  -0.694
  359DIO    H1820102   3.571   6.096  -0.516
  359DIO    H1920103   3.702   6.187  -0.437
  359DIO    H2020104   3.541   6.259  -0.453
  360DIO     F120105   6.464   9.408   2.462
  360DIO     C120106   6.386   9.479   2.546
  360DIO     C220107   6.242   9.476   2.529
  360DIO     C320108   6.153   9.555   2.618
  360DIO     C420109   6.219   9.634   2.725
  360DIO     C520110   6.363   9.635   2.739
  360DIO     F220111   6.418   9.705   2.840
  360DIO     C620112   6.447   9.558   2.651
  360DIO     F320113   6.580   9.560   2.665
  360DIO     C720114   6.007   9.554   2.602
  360DIO     C820115   5.930   9.680   2.595
  360DIO     C920116   5.785   9.680   2.580
  360DIO    C1020117   5.712   9.554   2.581
  360DIO    C1120118   5.785   9.428   2.580
  360DIO    C1220119   5.929   9.429   2.593
  360DIO     F420120   5.994   9.311   2.597
  360DIO     O120121   5.580   9.559   2.542
  360DIO    C1320122   5.486   9.475   2.599
  360DIO     O220123   5.485   9.406   2.705
  360DIO    C1420124   5.356   9.479   2.530
  360DIO    C1520125   5.290   9.607   2.497
  360DIO     F520126   5.353   9.724   2.522
  360DIO    C1620127   5.159   9.614   2.434
  360DIO    C1720128   5.084   9.492   2.408
  360DIO    C1820129   5.152   9.364   2.424
  360DIO    C1920130   5.284   9.358   2.485
  360DIO     F620131   5.346   9.238   2.483
  360DIO    C2020132   4.943   9.498   2.353
  360DIO     O320133   4.873   9.618   2.386
  360DIO    C2120134   4.829   9.622   2.521
  360DIO    C2220135   4.741   9.502   2.553
  360DIO    C2320136   4.821   9.377   2.519
  360DIO     O420137   4.866   9.381   2.383
  360DIO    C2420138   4.608   9.503   2.474
  360DIO    C2520139   4.517   9.624   2.496
  360DIO    C2620140   4.479   9.646   2.642
  360DIO     H120141   6.199   9.415   2.451
  360DIO     H220142   6.158   9.685   2.799
  360DIO     H320143   5.981   9.775   2.596
  360DIO     H420144   5.730   9.772   2.566
  360DIO     H520145   5.730   9.335   2.575
  360DIO     H620146   5.121   9.711   2.405
  360DIO     H720147   5.109   9.273   2.385
  360DIO     H820148   4.953   9.499   2.244
  360DIO     H920149   4.916   9.624   2.588
  360DIO    H1020150   4.777   9.716   2.537
  360DIO    H1120151   4.718   9.501   2.660
  360DIO    H1220152   4.760   9.287   2.531
  360DIO    H1320153   4.907   9.367   2.586
  360DIO    H1420154   4.628   9.495   2.366
  360DIO    H1520155   4.551   9.412   2.501
  360DIO    H1620156   4.564   9.715   2.456
  360DIO    H1720157   4.425   9.610   2.438
  360DIO    H1820158   4.435   9.556   2.685
  360DIO    H1920159   4.565   9.676   2.702
  360DIO    H2020160   4.405   9.727   2.649
  361DIO     F120161  10.871   0.812   1.062
  361DIO     C120162  10.794   0.910   1.113
  361DIO     C220163  10.650   0.901   1.099
  361DIO     C320164  10.561   1.007   1.151
  361DIO     C420165  10.626   1.121   1.220
  361DIO     C520166  10.771   1.127   1.233
  361DIO     F220167  10.826   1.230   1.300
  361DIO     C620168  10.854   1.022   1.180
  361DIO     F320169  10.988   1.030   1.192
  361DIO     C720170  10.414   1.000   1.136
  361DIO     C820171  10.337   1.114   1.082
  361DIO     C920172  10.193   1.108   1.068
  361DIO    C1020173  10.120   0.992   1.117
  361DIO    C1120174  10.192   0.875   1.164
  361DIO    C1220175  10.337   0.881   1.175
  361DIO     F420176  10.401   0.773   1.224
  361DIO     O120177   9.988   0.983   1.079
  361DIO    C1320178   9.893   0.926   1.164
  361DIO     O220179   9.892   0.903   1.288
  361DIO    C1420180   9.764   0.904   1.098
  361DIO    C1520181   9.698   1.010   1.019
  361DIO     F520182   9.760   1.127   0.997
  361DIO    C1620183   9.567   0.992   0.958
  361DIO    C1720184   9.491   0.869   0.980
  361DIO    C1820185   9.560   0.757   1.043
  361DIO    C1920186   9.692   0.775   1.102
  361DIO     F620187   9.754   0.663   1.146
  361DIO    C2020188   9.351   0.854   0.928
  361DIO     O320189   9.281   0.978   0.912
  361DIO    C2120190   9.237   1.033   1.036
  361DIO    C2220191   9.148   0.934   1.111
  361DIO    C2320192   9.229   0.805   1.126
  361DIO     O420193   9.273   0.757   1.000
  361DIO    C2420194   9.015   0.904   1.037
  361DIO    C2520195   8.925   1.025   1.012
  361DIO    C2620196   8.886   1.101   1.138
  361DIO     H120197  10.607   0.814   1.049
  361DIO     H220198  10.566   1.196   1.268
  361DIO     H320199  10.389   1.203   1.047
  361DIO     H420200  10.137   1.188   1.021
  361DIO     H520201  10.138   0.787   1.195
  361DIO     H620202   9.529   1.071   0.894
  361DIO     H720203   9.517   0.658   1.042
  361DIO     H820204   9.360   0.813   0.826
  361DIO     H920205   9.324   1.060   1.097
  361DIO    H1020206   9.184   1.126   1.014
  361DIO    H1120207   9.126   0.973   1.210
  361DIO    H1220208   9.168   0.726   1.172
  361DIO    H1320209   9.315   0.821   1.192
  361DIO    H1420210   9.035   0.856   0.941
  361DIO    H1520211   8.959   0.831   1.097
  361DIO    H1620212   8.972   1.094   0.941
  361DIO    H1720213   8.833   0.989   0.963
  361DIO    H1820214   8.842   1.034   1.213
  361DIO    H1920215   8.973   1.151   1.183
  361DIO    H2020216   8.813   1.178   1.114
  362DIO     F120217   2.646  10.735   8.856
  362DIO     C120218   2.569  10.628   8.881
  362DIO     C220219   2.425  10.644   8.886
  362DIO     C320220   2.336  10.529   8.916
  362DIO     C420221   2.401  10.398   8.938
  362DIO     C520222   2.546  10.385   8.933
  362DIO     F220223   2.601  10.263   8.949
  362DIO     C620224   2.629  10.499   8.904
  362DIO     F320225   2.763  10.485   8.900
  362DIO     C720226   2.189  10.544   8.923
  362DIO     C820227   2.112  10.493   9.038
  362DIO     C920228   1.968  10.507   9.045
  362DIO    C1020229   1.895  10.562   8.932
  362DIO    C1120230   1.967  10.621   8.820
  362DIO    C1220231   2.112  10.609   8.815
  362DIO     F420232   2.176  10.659   8.708
  362DIO     O120233   1.763  10.595   8.955
  362DIO    C1320234   1.668  10.582   8.853
  362DIO     O220235   1.667  10.519   8.744
  362DIO    C1420236   1.539  10.642   8.889
  362DIO    C1520237   1.473  10.613   9.018
  362DIO     F520238   1.535  10.538   9.111
  362DIO    C1620239   1.342  10.666   9.052
  362DIO    C1720240   1.266  10.745   8.956
  362DIO    C1820241   1.335  10.789   8.835
  362DIO    C1920242   1.467  10.737   8.801
  362DIO     F620243   1.529  10.793   8.695
  362DIO    C2020244   1.126  10.791   8.985
  362DIO     O320245   1.056  10.707   9.078
  362DIO    C2120246   1.012  10.585   9.020
  362DIO    C2220247   0.923  10.611   8.899
  362DIO    C2320248   1.004  10.698   8.803
  362DIO     O420249   1.048  10.817   8.868
  362DIO    C2420250   0.790  10.681   8.935
  362DIO    C2520251   0.700  10.606   9.033
  362DIO    C2620252   0.661  10.467   8.987
  362DIO     H120253   2.382  10.742   8.868
  362DIO     H220254   2.341  10.309   8.951
  362DIO     H320255   2.164  10.449   9.123
  362DIO     H420256   1.912  10.477   9.133
  362DIO     H520257   1.913  10.667   8.739
  362DIO     H620258   1.304  10.649   9.152
  362DIO     H720259   1.292  10.865   8.771
  362DIO     H820260   1.135  10.888   9.036
  362DIO     H920261   1.099  10.524   8.992
  362DIO    H1020262   0.959  10.528   9.097
  362DIO    H1120263   0.901  10.516   8.849
  362DIO    H1220264   0.943  10.728   8.717
  362DIO    H1320265   1.090  10.643   8.763
  362DIO    H1420266   0.810  10.781   8.977
  362DIO    H1520267   0.734  10.698   8.842
  362DIO    H1620268   0.747  10.601   9.132
  362DIO    H1720269   0.608  10.665   9.047
  362DIO    H1820270   0.617  10.469   8.887
  362DIO    H1920271   0.748  10.400   8.986
  362DIO    H2020272   0.588  10.424   9.056
  363DIO     F120273   8.162  10.293   9.032
  363DIO     C120274   8.085  10.327   8.927
  363DIO     C220275   7.941  10.314   8.938
  363DIO     C320276   7.852  10.349   8.825
  363DIO     C420277   7.917  10.399   8.702
  363DIO     C520278   8.062  10.411   8.693
  363DIO     F220279   8.117  10.461   8.581
  363DIO     C620280   8.145  10.376   8.805
  363DIO     F320281   8.279  10.386   8.796
  363DIO     C720282   7.705  10.336   8.834
  363DIO     C820283   7.628  10.264   8.730
  363DIO     C920284   7.484  10.251   8.738
  363DIO    C1020285   7.411  10.318   8.845
  363DIO    C1120286   7.483  10.383   8.953
  363DIO    C1220287   7.628  10.393   8.946
  363DIO     F420288   7.692  10.458   9.044
  363DIO     O120289   7.279  10.282   8.860
  363DIO    C1320290   7.184  10.375   8.903
  363DIO     O220291   7.183  10.501   8.906
  363DIO    C1420292   7.055  10.313   8.936
  363DIO    C1520293   6.989  10.218   8.843
  363DIO     F520294   7.051  10.179   8.731
  363DIO    C1620295   6.858  10.161   8.870
  363DIO    C1720296   6.782  10.202   8.988
  363DIO    C1820297   6.851  10.282   9.089
  363DIO    C1920298   6.983  10.338   9.062
  363DIO     F620299   7.045  10.399   9.165
  363DIO    C2020300   6.642  10.153   9.012
  363DIO     O320301   6.572  10.118   8.892
  363DIO    C2120302   6.528  10.231   8.818
  363DIO    C2220303   6.439  10.321   8.904
  363DIO    C2320304   6.520  10.357   9.028
  363DIO     O420305   6.564  10.239   9.096
  363DIO    C2420306   6.306  10.253   8.945
  363DIO    C2520307   6.216  10.209   8.829
  363DIO    C2620308   6.177  10.321   8.734
  363DIO     H120309   7.898  10.279   9.031
  363DIO     H220310   7.857  10.435   8.619
  363DIO     H320311   7.680  10.216   8.648
  363DIO     H420312   7.428  10.192   8.667
  363DIO     H520313   7.429  10.427   9.035
  363DIO     H620314   6.820  10.086   8.803
  363DIO     H720315   6.808  10.297   9.187
  363DIO     H820316   6.651  10.059   9.068
  363DIO     H920317   6.615  10.287   8.781
  363DIO    H1020318   6.475  10.195   8.729
  363DIO    H1120319   6.417  10.413   8.849
  363DIO    H1220320   6.459  10.414   9.099
  363DIO    H1320321   6.606  10.420   9.002
  363DIO    H1420322   6.326  10.166   9.007
  363DIO    H1520323   6.250  10.323   9.007
  363DIO    H1620324   6.263  10.128   8.773
  363DIO    H1720325   6.124  10.167   8.872
  363DIO    H1820326   6.133  10.406   8.789
  363DIO    H1920327   6.264  10.358   8.678
  363DIO    H2020328   6.104  10.286   8.662
  364DIO     F120329   5.917   8.764   4.390
  364DIO     C120330   5.839   8.690   4.472
  364DIO     C220331   5.695   8.707   4.467
  364DIO     C320332   5.606   8.629   4.556
  364DIO     C420333   5.672   8.534   4.649
  364DIO     C520334   5.816   8.520   4.652
  364DIO     F220335   5.872   8.429   4.735
  364DIO     C620336   5.900   8.597   4.564
  364DIO     F320337   6.034   8.584   4.568
  364DIO     C720338   5.460   8.645   4.554
  364DIO     C820339   5.383   8.669   4.678
  364DIO     C920340   5.238   8.684   4.675
  364DIO    C1020341   5.166   8.666   4.551
  364DIO    C1120342   5.238   8.650   4.426
  364DIO    C1220343   5.382   8.638   4.428
  364DIO     F420344   5.447   8.618   4.312
  364DIO     O120345   5.033   8.705   4.551
  364DIO    C1320346   4.939   8.637   4.474
  364DIO     O220347   4.938   8.523   4.421
  364DIO    C1420348   4.810   8.707   4.470
  364DIO    C1520349   4.744   8.756   4.592
  364DIO     F520350   4.806   8.747   4.711
  364DIO    C1620351   4.613   8.819   4.590
  364DIO    C1720352   4.537   8.829   4.466
  364DIO    C1820353   4.606   8.796   4.342
  364DIO    C1920354   4.737   8.735   4.344
  364DIO     F620355   4.800   8.721   4.225
  364DIO    C2020356   4.396   8.884   4.464
  364DIO     O320357   4.327   8.868   4.588
  364DIO    C2120358   4.283   8.734   4.610
  364DIO    C2220359   4.194   8.687   4.496
  364DIO    C2320360   4.275   8.704   4.367
  364DIO     O420361   4.319   8.839   4.353
  364DIO    C2420362   4.061   8.765   4.485
  364DIO    C2520363   3.971   8.759   4.609
  364DIO    C2620364   3.932   8.618   4.651
  364DIO     H120365   5.653   8.777   4.396
  364DIO     H220366   5.611   8.468   4.710
  364DIO     H320367   5.434   8.680   4.772
  364DIO     H420368   5.183   8.709   4.764
  364DIO     H520369   5.184   8.642   4.333
  364DIO     H620370   4.575   8.862   4.683
  364DIO     H720371   4.563   8.822   4.246
  364DIO     H820372   4.406   8.992   4.451
  364DIO     H920373   4.370   8.668   4.622
  364DIO    H1020374   4.230   8.732   4.706
  364DIO    H1120375   4.171   8.580   4.509
  364DIO    H1220376   4.214   8.679   4.280
  364DIO    H1320377   4.361   8.636   4.366
  364DIO    H1420378   4.081   8.871   4.463
  364DIO    H1520379   4.005   8.726   4.400
  364DIO    H1620380   4.018   8.811   4.693
  364DIO    H1720381   3.879   8.815   4.587
  364DIO    H1820382   3.888   8.563   4.567
  364DIO    H1920383   4.019   8.562   4.688
  364DIO    H2020384   3.858   8.622   4.731
  365DIO     F120385   6.702   4.412  -0.270
  365DIO     C120386   6.625   4.447  -0.375
  365DIO     C220387   6.481   4.434  -0.364
  365DIO     C320388   6.392   4.470  -0.477
  365DIO     C420389   6.457   4.521  -0.599
  365DIO     C520390   6.602   4.533  -0.608
  365DIO     F220391   6.657   4.584  -0.720
  365DIO     C620392   6.685   4.497  -0.496
  365DIO     F320393   6.819   4.507  -0.506
  365DIO     C720394   6.245   4.457  -0.468
  365DIO     C820395   6.168   4.386  -0.572
  365DIO     C920396   6.024   4.373  -0.564
  365DIO    C1020397   5.951   4.439  -0.457
  365DIO    C1120398   6.023   4.503  -0.348
  365DIO    C1220399   6.168   4.513  -0.356
  365DIO     F420400   6.232   4.577  -0.256
  365DIO     O120401   5.819   4.403  -0.442
  365DIO    C1320402   5.724   4.495  -0.398
  365DIO     O220403   5.723   4.621  -0.394
  365DIO    C1420404   5.595   4.433  -0.366
  365DIO    C1520405   5.529   4.339  -0.459
  365DIO     F520406   5.591   4.300  -0.572
  365DIO    C1620407   5.398   4.282  -0.433
  365DIO    C1720408   5.322   4.322  -0.315
  365DIO    C1820409   5.391   4.401  -0.213
  365DIO    C1920410   5.523   4.457  -0.239
  365DIO     F620411   5.585   4.517  -0.136
  365DIO    C2020412   5.182   4.272  -0.291
  365DIO     O320413   5.112   4.238  -0.412
  365DIO    C2120414   5.068   4.352  -0.484
  365DIO    C2220415   4.979   4.441  -0.398
  365DIO    C2320416   5.060   4.476  -0.273
  365DIO     O420417   5.104   4.358  -0.207
  365DIO    C2420418   4.846   4.373  -0.358
  365DIO    C2520419   4.756   4.330  -0.473
  365DIO    C2620420   4.717   4.443  -0.567
  365DIO     H120421   6.438   4.398  -0.271
  365DIO     H220422   6.397   4.558  -0.681
  365DIO     H320423   6.220   4.338  -0.655
  365DIO     H420424   5.968   4.314  -0.636
  365DIO     H520425   5.969   4.547  -0.266
  365DIO     H620426   5.360   4.207  -0.501
  365DIO     H720427   5.348   4.415  -0.115
  365DIO     H820428   5.191   4.178  -0.236
  365DIO     H920429   5.155   4.408  -0.521
  365DIO    H1020430   5.015   4.317  -0.574
  365DIO    H1120431   4.957   4.534  -0.452
  365DIO    H1220432   4.999   4.533  -0.202
  365DIO    H1320433   5.146   4.539  -0.299
  365DIO    H1420434   4.866   4.285  -0.296
  365DIO    H1520435   4.790   4.443  -0.295
  365DIO    H1620436   4.803   4.249  -0.531
  365DIO    H1720437   4.664   4.287  -0.431
  365DIO    H1820438   4.673   4.527  -0.512
  365DIO    H1920439   4.804   4.480  -0.623
  365DIO    H2020440   4.644   4.408  -0.640
  366DIO     F120441   7.287   8.110   6.018
  366DIO     C120442   7.209   8.145   5.913
  366DIO     C220443   7.065   8.132   5.925
  366DIO     C320444   6.976   8.167   5.811
  366DIO     C420445   7.042   8.217   5.688
  366DIO     C520446   7.186   8.229   5.680
  366DIO     F220447   7.241   8.279   5.568
  366DIO     C620448   7.270   8.193   5.792
  366DIO     F320449   7.403   8.204   5.782
  366DIO     C720450   6.830   8.153   5.820
  366DIO     C820451   6.753   8.082   5.716
  366DIO     C920452   6.608   8.069   5.724
  366DIO    C1020453   6.535   8.136   5.831
  366DIO    C1120454   6.608   8.200   5.939
  366DIO    C1220455   6.752   8.210   5.932
  366DIO     F420456   6.817   8.275   6.031
  366DIO     O120457   6.403   8.100   5.847
  366DIO    C1320458   6.309   8.192   5.890
  366DIO     O220459   6.308   8.318   5.893
  366DIO    C1420460   6.180   8.131   5.922
  366DIO    C1520461   6.113   8.036   5.829
  366DIO     F520462   6.176   7.996   5.717
  366DIO    C1620463   5.982   7.979   5.856
  366DIO    C1720464   5.907   8.020   5.974
  366DIO    C1820465   5.975   8.099   6.075
  366DIO    C1920466   6.107   8.155   6.048
  366DIO     F620467   6.170   8.216   6.152
  366DIO    C2020468   5.766   7.970   5.998
  366DIO     O320469   5.696   7.935   5.877
  366DIO    C2120470   5.653   8.049   5.804
  366DIO    C2220471   5.564   8.138   5.890
  366DIO    C2320472   5.644   8.174   6.015
  366DIO     O420473   5.689   8.056   6.082
  366DIO    C2420474   5.431   8.071   5.931
  366DIO    C2520475   5.340   8.027   5.815
  366DIO    C2620476   5.302   8.139   5.721
  366DIO     H120477   7.022   8.096   6.018
  366DIO     H220478   6.981   8.253   5.606
  366DIO     H320479   6.804   8.034   5.634
  366DIO     H420480   6.553   8.010   5.653
  366DIO     H520481   6.553   8.245   6.021
  366DIO     H620482   5.944   7.903   5.789
  366DIO     H720483   5.933   8.114   6.173
  366DIO     H820484   5.776   7.876   6.054
  366DIO     H920485   5.739   8.105   5.767
  366DIO    H1020486   5.600   8.013   5.715
  366DIO    H1120487   5.541   8.231   5.835
  366DIO    H1220488   5.583   8.232   6.085
  366DIO    H1320489   5.731   8.237   5.989
  366DIO    H1420490   5.451   7.983   5.993
  366DIO    H1520491   5.374   8.141   5.994
  366DIO    H1620492   5.388   7.946   5.759
  366DIO    H1720493   5.248   7.984   5.858
  366DIO    H1820494   5.258   8.223   5.775
  366DIO    H1920495   5.388   8.176   5.664
  366DIO    H2020496   5.228   8.104   5.648
  367DIO     F120497   6.440   2.807   4.994
  367DIO     C120498   6.363   2.856   5.092
  367DIO     C220499   6.219   2.857   5.075
  367DIO     C320500   6.130   2.913   5.179
  367DIO     C420501   6.195   2.965   5.302
  367DIO     C520502   6.340   2.963   5.316
  367DIO     F220503   6.395   3.007   5.431
  367DIO     C620504   6.423   2.908   5.212
  367DIO     F320505   6.557   2.908   5.226
  367DIO     C720506   5.983   2.916   5.164
  367DIO     C820507   5.906   3.041   5.187
  367DIO     C920508   5.762   3.043   5.172
  367DIO    C1020509   5.689   2.921   5.143
  367DIO    C1120510   5.761   2.799   5.113
  367DIO    C1220511   5.906   2.797   5.125
  367DIO     F420512   5.970   2.681   5.102
  367DIO     O120513   5.557   2.935   5.107
  367DIO    C1320514   5.462   2.840   5.143
  367DIO     O220515   5.461   2.748   5.229
  367DIO    C1420516   5.333   2.860   5.076
  367DIO    C1520517   5.267   2.993   5.074
  367DIO     F520518   5.329   3.100   5.126
  367DIO    C1620519   5.136   3.014   5.015
  367DIO    C1720520   5.060   2.901   4.961
  367DIO    C1820521   5.129   2.774   4.946
  367DIO    C1920522   5.261   2.753   5.004
  367DIO     F620523   5.323   2.637   4.974
  367DIO    C2020524   4.920   2.920   4.909
  367DIO     O320525   4.850   3.029   4.969
  367DIO    C2120526   4.806   3.001   5.101
  367DIO    C2220527   4.717   2.877   5.104
  367DIO    C2320528   4.798   2.764   5.041
  367DIO     O420529   4.842   2.799   4.911
  367DIO    C2420530   4.584   2.896   5.027
  367DIO    C2520531   4.494   3.009   5.077
  367DIO    C2620532   4.455   2.997   5.224
  367DIO     H120533   6.176   2.817   4.984
  367DIO     H220534   6.135   2.998   5.386
  367DIO     H320535   5.958   3.133   5.210
  367DIO     H420536   5.706   3.136   5.180
  367DIO     H520537   5.707   2.709   5.087
  367DIO     H620538   5.098   3.115   5.009
  367DIO     H720539   5.086   2.694   4.887
  367DIO     H820540   4.929   2.946   4.803
  367DIO     H920541   4.893   2.988   5.167
  367DIO    H1020542   4.753   3.089   5.138
  367DIO    H1120543   4.695   2.851   5.208
  367DIO    H1220544   4.737   2.673   5.033
  367DIO    H1320545   4.884   2.738   5.104
  367DIO    H1420546   4.604   2.914   4.921
  367DIO    H1520547   4.528   2.802   5.033
  367DIO    H1620548   4.541   3.106   5.060
  367DIO    H1720549   4.402   3.009   5.017
  367DIO    H1820550   4.411   2.899   5.245
  367DIO    H1920551   4.542   3.011   5.289
  367DIO    H2020552   4.382   3.074   5.250
  368DIO     F120553   8.865   5.260  -0.933
  368DIO     C120554   8.788   5.228  -0.828
  368DIO     C220555   8.644   5.240  -0.839
  368DIO     C320556   8.555   5.208  -0.725
  368DIO     C420557   8.620   5.160  -0.601
  368DIO     C520558   8.765   5.149  -0.592
  368DIO     F220559   8.820   5.101  -0.479
  368DIO     C620560   8.848   5.182  -0.705
  368DIO     F320561   8.982   5.171  -0.695
  368DIO     C720562   8.408   5.221  -0.734
  368DIO     C820563   8.331   5.294  -0.632
  368DIO     C920564   8.187   5.307  -0.640
  368DIO    C1020565   8.114   5.238  -0.746
  368DIO    C1120566   8.187   5.171  -0.852
  368DIO    C1220567   8.331   5.161  -0.845
  368DIO     F420568   8.396   5.094  -0.942
  368DIO     O120569   7.982   5.274  -0.762
  368DIO    C1320570   7.887   5.180  -0.803
  368DIO     O220571   7.886   5.054  -0.803
  368DIO    C1420572   7.758   5.241  -0.836
  368DIO    C1520573   7.692   5.338  -0.746
  368DIO     F520574   7.755   5.380  -0.634
  368DIO    C1620575   7.561   5.394  -0.774
  368DIO    C1720576   7.485   5.351  -0.891
  368DIO    C1820577   7.554   5.269  -0.990
  368DIO    C1920578   7.686   5.214  -0.962
  368DIO     F620579   7.748   5.151  -1.064
  368DIO    C2020580   7.345   5.400  -0.916
  368DIO     O320581   7.275   5.438  -0.796
  368DIO    C2120582   7.231   5.326  -0.720
  368DIO    C2220583   7.142   5.234  -0.804
  368DIO    C2320584   7.223   5.196  -0.928
  368DIO     O420585   7.267   5.312  -0.998
  368DIO    C2420586   7.010   5.301  -0.847
  368DIO    C2520587   6.919   5.348  -0.732
  368DIO    C2620588   6.880   5.237  -0.635
  368DIO     H120589   8.601   5.274  -0.933
  368DIO     H220590   8.560   5.126  -0.518
  368DIO     H320591   8.383   5.345  -0.551
  368DIO     H420592   8.132   5.368  -0.570
  368DIO     H520593   8.132   5.125  -0.933
  368DIO     H620594   7.523   5.471  -0.708
  368DIO     H720595   7.511   5.252  -1.088
  368DIO     H820596   7.354   5.493  -0.974
  368DIO     H920597   7.318   5.271  -0.683
  368DIO    H1020598   7.178   5.363  -0.632
  368DIO    H1120599   7.120   5.143  -0.748
  368DIO    H1220600   7.162   5.137  -0.997
  368DIO    H1320601   7.309   5.134  -0.901
  368DIO    H1420602   7.029   5.387  -0.911
  368DIO    H1520603   6.953   5.230  -0.908
  368DIO    H1620604   6.966   5.430  -0.677
  368DIO    H1720605   6.827   5.389  -0.776
  368DIO    H1820606   6.837   5.152  -0.688
  368DIO    H1920607   6.967   5.202  -0.578
  368DIO    H2020608   6.807   5.274  -0.563
  369DIO     F120609   7.097   2.904   0.125
  369DIO     C120610   7.019   2.794   0.127
  369DIO     C220611   6.875   2.809   0.135
  369DIO     C320612   6.787   2.691   0.141
  369DIO     C420613   6.852   2.558   0.135
  369DIO     C520614   6.996   2.546   0.127
  369DIO     F220615   7.052   2.423   0.117
  369DIO     C620616   7.080   2.663   0.122
  369DIO     F320617   7.214   2.651   0.116
  369DIO     C720618   6.640   2.704   0.150
  369DIO     C820619   6.563   2.629   0.253
  369DIO     C920620   6.418   2.642   0.262
  369DIO    C1020621   6.346   2.720   0.163
  369DIO    C1120622   6.418   2.800   0.066
  369DIO    C1220623   6.562   2.790   0.059
  369DIO     F420624   6.627   2.861  -0.036
  369DIO     O120625   6.214   2.746   0.192
  369DIO    C1320626   6.119   2.756   0.090
  369DIO     O220627   6.118   2.717  -0.030
  369DIO    C1420628   5.990   2.807   0.137
  369DIO    C1520629   5.924   2.752   0.258
  369DIO     F520630   5.986   2.659   0.333
  369DIO    C1620631   5.793   2.796   0.302
  369DIO    C1720632   5.717   2.893   0.224
  369DIO    C1820633   5.786   2.961   0.115
  369DIO    C1920634   5.917   2.918   0.072
  369DIO     F620635   5.980   2.995  -0.020
  369DIO    C2020636   5.576   2.932   0.263
  369DIO     O320637   5.507   2.831   0.336
  369DIO    C2120638   5.463   2.724   0.254
  369DIO    C2220639   5.374   2.774   0.141
  369DIO    C2320640   5.455   2.880   0.065
  369DIO     O420641   5.499   2.982   0.153
  369DIO    C2420642   5.241   2.835   0.191
  369DIO    C2520643   5.151   2.742   0.271
  369DIO    C2620644   5.112   2.615   0.197
  369DIO     H120645   6.833   2.909   0.138
  369DIO     H220646   6.791   2.468   0.128
  369DIO     H320647   6.615   2.569   0.326
  369DIO     H420648   6.363   2.594   0.342
  369DIO     H520649   6.364   2.862  -0.004
  369DIO     H620650   5.755   2.758   0.396
  369DIO     H720651   5.743   3.049   0.068
  369DIO     H820652   5.586   3.017   0.333
  369DIO     H920653   5.550   2.670   0.214
  369DIO    H1020654   5.410   2.652   0.317
  369DIO    H1120655   5.352   2.692   0.072
  369DIO    H1220656   5.394   2.927  -0.013
  369DIO    H1320657   5.541   2.834   0.015
  369DIO    H1420658   5.261   2.924   0.252
  369DIO    H1520659   5.185   2.871   0.104
  369DIO    H1620660   5.198   2.715   0.366
  369DIO    H1720661   5.059   2.796   0.297
  369DIO    H1820662   5.068   2.637   0.099
  369DIO    H1920663   5.199   2.549   0.182
  369DIO    H2020664   5.039   2.558   0.255
  370DIO     F120665   6.765   1.678   0.542
  370DIO     C120666   6.687   1.651   0.436
  370DIO     C220667   6.543   1.646   0.452
  370DIO     C320668   6.455   1.614   0.338
  370DIO     C420669   6.520   1.590   0.207
  370DIO     C520670   6.664   1.595   0.194
  370DIO     F220671   6.720   1.577   0.072
  370DIO     C620672   6.748   1.626   0.307
  370DIO     F320673   6.882   1.629   0.293
  370DIO     C720674   6.308   1.608   0.353
  370DIO     C820675   6.231   1.491   0.303
  370DIO     C920676   6.086   1.485   0.317
  370DIO    C1020677   6.014   1.599   0.371
  370DIO    C1120678   6.086   1.711   0.428
  370DIO    C1220679   6.230   1.716   0.416
  370DIO     F420680   6.295   1.824   0.464
  370DIO     O120681   5.882   1.577   0.404
  370DIO    C1320682   5.787   1.678   0.390
  370DIO     O220683   5.786   1.786   0.325
  370DIO    C1420684   5.658   1.643   0.450
  370DIO    C1520685   5.592   1.514   0.424
  370DIO     F520686   5.654   1.420   0.350
  370DIO    C1620687   5.461   1.480   0.477
  370DIO    C1720688   5.385   1.578   0.554
  370DIO    C1820689   5.454   1.700   0.596
  370DIO    C1920690   5.585   1.732   0.544
  370DIO     F620691   5.648   1.839   0.598
  370DIO    C2020692   5.244   1.549   0.601
  370DIO     O320693   5.175   1.455   0.519
  370DIO    C2120694   5.131   1.511   0.395
  370DIO    C2220695   5.042   1.633   0.419
  370DIO    C2320696   5.123   1.730   0.505
  370DIO     O420697   5.167   1.667   0.625
  370DIO    C2420698   4.909   1.598   0.490
  370DIO    C2520699   4.819   1.498   0.417
  370DIO    C2620700   4.780   1.542   0.276
  370DIO     H120701   6.501   1.666   0.550
  370DIO     H220702   6.459   1.576   0.118
  370DIO     H320703   6.283   1.406   0.261
  370DIO     H420704   6.031   1.397   0.289
  370DIO     H520705   6.032   1.793   0.473
  370DIO     H620706   5.423   1.380   0.461
  370DIO     H720707   5.411   1.765   0.671
  370DIO     H820708   5.254   1.500   0.699
  370DIO     H920709   5.218   1.538   0.334
  370DIO    H1020710   5.078   1.433   0.340
  370DIO    H1120711   5.020   1.681   0.323
  370DIO    H1220712   5.062   1.816   0.533
  370DIO    H1320713   5.209   1.769   0.449
  370DIO    H1420714   4.929   1.558   0.590
  370DIO    H1520715   4.853   1.691   0.505
  370DIO    H1620716   4.866   1.400   0.413
  370DIO    H1720717   4.727   1.486   0.476
  370DIO    H1820718   4.736   1.642   0.277
  370DIO    H1920719   4.867   1.542   0.209
  370DIO    H2020720   4.707   1.473   0.234
  371DIO     F120721   7.772   1.936   5.619
  371DIO     C120722   7.695   1.826   5.621
  371DIO     C220723   7.551   1.841   5.629
  371DIO     C320724   7.462   1.723   5.633
  371DIO     C420725   7.527   1.590   5.626
  371DIO     C520726   7.672   1.578   5.618
  371DIO     F220727   7.727   1.455   5.607
  371DIO     C620728   7.755   1.695   5.615
  371DIO     F320729   7.889   1.683   5.608
  371DIO     C720730   7.316   1.735   5.643
  371DIO     C820731   7.238   1.660   5.744
  371DIO     C920732   7.094   1.672   5.754
  371DIO    C1020733   7.021   1.751   5.656
  371DIO    C1120734   7.094   1.833   5.560
  371DIO    C1220735   7.238   1.822   5.553
  371DIO     F420736   7.303   1.894   5.459
  371DIO     O120737   6.889   1.778   5.685
  371DIO    C1320738   6.794   1.788   5.583
  371DIO     O220739   6.794   1.750   5.463
  371DIO    C1420740   6.665   1.839   5.631
  371DIO    C1520741   6.599   1.782   5.751
  371DIO     F520742   6.662   1.689   5.825
  371DIO    C1620743   6.468   1.826   5.796
  371DIO    C1720744   6.392   1.924   5.719
  371DIO    C1820745   6.461   1.994   5.611
  371DIO    C1920746   6.593   1.950   5.567
  371DIO     F620747   6.655   2.028   5.476
  371DIO    C2020748   6.252   1.963   5.758
  371DIO     O320749   6.182   1.861   5.831
  371DIO    C2120750   6.138   1.754   5.747
  371DIO    C2220751   6.049   1.806   5.634
  371DIO    C2320752   6.130   1.912   5.560
  371DIO     O420753   6.174   2.014   5.649
  371DIO    C2420754   5.917   1.867   5.685
  371DIO    C2520755   5.826   1.772   5.764
  371DIO    C2620756   5.788   1.646   5.689
  371DIO     H120757   7.508   1.940   5.633
  371DIO     H220758   7.467   1.500   5.619
  371DIO     H320759   7.290   1.599   5.817
  371DIO     H420760   7.039   1.624   5.833
  371DIO     H520761   7.039   1.896   5.491
  371DIO     H620762   6.430   1.787   5.890
  371DIO     H720763   6.418   2.082   5.565
  371DIO     H820764   6.261   2.046   5.829
  371DIO     H920765   6.225   1.701   5.706
  371DIO    H1020766   6.086   1.682   5.810
  371DIO    H1120767   6.027   1.724   5.565
  371DIO    H1220768   6.069   1.960   5.483
  371DIO    H1320769   6.216   1.867   5.509
  371DIO    H1420770   5.937   1.955   5.747
  371DIO    H1520771   5.860   1.903   5.598
  371DIO    H1620772   5.873   1.745   5.859
  371DIO    H1720773   5.734   1.826   5.790
  371DIO    H1820774   5.744   1.670   5.592
  371DIO    H1920775   5.874   1.581   5.673
  371DIO    H2020776   5.714   1.589   5.746
  372DIO     F120777   8.635   1.609   0.913
  372DIO     C120778   8.557   1.504   0.878
  372DIO     C220779   8.413   1.515   0.891
  372DIO     C320780   8.324   1.402   0.855
  372DIO     C420781   8.390   1.280   0.804
  372DIO     C520782   8.534   1.271   0.792
  372DIO     F220783   8.590   1.159   0.741
  372DIO     C620784   8.618   1.383   0.828
  372DIO     F320785   8.752   1.373   0.818
  372DIO     C720786   8.178   1.411   0.868
  372DIO     C820787   8.101   1.307   0.939
  372DIO     C920788   7.956   1.315   0.952
  372DIO    C1020789   7.884   1.422   0.886
  372DIO    C1120790   7.956   1.531   0.822
  372DIO    C1220791   8.100   1.523   0.812
  372DIO     F420792   8.165   1.623   0.748
  372DIO     O120793   7.751   1.437   0.922
  372DIO    C1320794   7.657   1.481   0.830
  372DIO     O220795   7.656   1.485   0.704
  372DIO    C1420796   7.528   1.513   0.892
  372DIO    C1520797   7.462   1.420   0.986
  372DIO     F520798   7.524   1.307   1.025
  372DIO    C1620799   7.331   1.446   1.043
  372DIO    C1720800   7.255   1.564   1.003
  372DIO    C1820801   7.324   1.666   0.924
  372DIO    C1920802   7.455   1.640   0.868
  372DIO     F620803   7.518   1.743   0.808
  372DIO    C2020804   7.114   1.588   1.053
  372DIO     O320805   7.045   1.467   1.087
  372DIO    C2120806   7.001   1.395   0.973
  372DIO    C2220807   6.912   1.481   0.884
  372DIO    C2320808   6.993   1.606   0.849
  372DIO     O420809   7.037   1.672   0.967
  372DIO    C2420810   6.779   1.521   0.952
  372DIO    C2520811   6.689   1.406   0.995
  372DIO    C2620812   6.650   1.312   0.882
  372DIO     H120813   8.371   1.608   0.927
  372DIO     H220814   8.329   1.198   0.767
  372DIO     H320815   8.152   1.224   0.987
  372DIO     H420816   7.901   1.243   1.011
  372DIO     H520817   7.902   1.613   0.778
  372DIO     H620818   7.293   1.378   1.118
  372DIO     H720819   7.281   1.764   0.910
  372DIO     H820820   7.124   1.643   1.147
  372DIO     H920821   7.088   1.358   0.917
  372DIO    H1020822   6.948   1.305   1.008
  372DIO    H1120823   6.889   1.427   0.791
  372DIO    H1220824   6.932   1.677   0.792
  372DIO    H1320825   7.079   1.580   0.786
  372DIO    H1420826   6.799   1.583   1.040
  372DIO    H1520827   6.723   1.584   0.882
  372DIO    H1620828   6.736   1.348   1.076
  372DIO    H1720829   6.597   1.448   1.038
  372DIO    H1820830   6.606   1.367   0.798
  372DIO    H1920831   6.737   1.256   0.845
  372DIO    H2020832   6.576   1.239   0.917
  373DIO     F120833   4.721   4.686   1.058
  373DIO     C120834   4.643   4.725   0.955
  373DIO     C220835   4.499   4.712   0.966
  373DIO     C320836   4.410   4.752   0.854
  373DIO     C420837   4.476   4.809   0.734
  373DIO     C520838   4.620   4.821   0.726
  373DIO     F220839   4.675   4.876   0.616
  373DIO     C620840   4.704   4.780   0.836
  373DIO     F320841   4.837   4.791   0.827
  373DIO     C720842   4.264   4.739   0.863
  373DIO     C820843   4.187   4.672   0.755
  373DIO     C920844   4.042   4.659   0.763
  373DIO    C1020845   3.969   4.720   0.873
  373DIO    C1120846   4.042   4.779   0.984
  373DIO    C1220847   4.186   4.790   0.977
  373DIO     F420848   4.251   4.850   1.079
  373DIO     O120849   3.837   4.684   0.886
  373DIO    C1320850   3.743   4.774   0.934
  373DIO     O220851   3.742   4.900   0.944
  373DIO    C1420852   3.613   4.711   0.963
  373DIO    C1520853   3.547   4.621   0.866
  373DIO     F520854   3.610   4.587   0.751
  373DIO    C1620855   3.416   4.563   0.890
  373DIO    C1720856   3.341   4.598   1.010
  373DIO    C1820857   3.409   4.672   1.114
  373DIO    C1920858   3.541   4.729   1.091
  373DIO     F620859   3.603   4.784   1.197
  373DIO    C2020860   3.200   4.547   1.031
  373DIO     O320861   3.130   4.518   0.909
  373DIO    C2120862   3.086   4.635   0.841
  373DIO    C2220863   2.998   4.720   0.932
  373DIO    C2320864   3.078   4.750   1.058
  373DIO     O420865   3.123   4.629   1.119
  373DIO    C2420866   2.865   4.651   0.969
  373DIO    C2520867   2.774   4.612   0.851
  373DIO    C2620868   2.736   4.729   0.762
  373DIO     H120869   4.456   4.672   1.057
  373DIO     H220870   4.415   4.849   0.654
  373DIO     H320871   4.238   4.628   0.671
  373DIO     H420872   3.987   4.604   0.688
  373DIO     H520873   3.987   4.820   1.068
  373DIO     H620874   3.378   4.490   0.819
  373DIO     H720875   3.366   4.682   1.213
  373DIO     H820876   3.210   4.450   1.082
  373DIO     H920877   3.173   4.693   0.807
  373DIO    H1020878   3.034   4.604   0.751
  373DIO    H1120879   2.975   4.815   0.881
  373DIO    H1220880   3.017   4.804   1.131
  373DIO    H1320881   3.164   4.814   1.035
  373DIO    H1420882   2.885   4.560   1.027
  373DIO    H1520883   2.808   4.718   1.035
  373DIO    H1620884   2.821   4.534   0.791
  373DIO    H1720885   2.682   4.568   0.892
  373DIO    H1820886   2.692   4.811   0.821
  373DIO    H1920887   2.822   4.769   0.708
  373DIO    H2020888   2.662   4.697   0.688
  374DIO     F120889   5.998   0.201   1.274
  374DIO     C120890   5.920   0.292   1.336
  374DIO     C220891   5.776   0.285   1.321
  374DIO     C320892   5.687   0.384   1.386
  374DIO     C420893   5.753   0.488   1.469
  374DIO     C520894   5.897   0.493   1.482
  374DIO     F220895   5.953   0.586   1.562
  374DIO     C620896   5.981   0.395   1.417
  374DIO     F320897   6.115   0.401   1.430
  374DIO     C720898   5.541   0.379   1.371
  374DIO     C820899   5.464   0.499   1.331
  374DIO     C920900   5.319   0.494   1.317
  374DIO    C1020901   5.247   0.373   1.351
  374DIO    C1120902   5.319   0.251   1.382
  374DIO    C1220903   5.463   0.255   1.394
  374DIO     F420904   5.528   0.142   1.429
  374DIO     O120905   5.114   0.369   1.312
  374DIO    C1320906   5.020   0.301   1.389
  374DIO     O220907   5.019   0.263   1.509
  374DIO    C1420908   4.891   0.288   1.320
  374DIO    C1520909   4.825   0.403   1.255
  374DIO     F520910   4.887   0.522   1.249
  374DIO    C1620911   4.694   0.393   1.193
  374DIO    C1720912   4.618   0.269   1.199
  374DIO    C1820913   4.687   0.149   1.248
  374DIO    C1920914   4.818   0.159   1.308
  374DIO     F620915   4.881   0.043   1.338
  374DIO    C2020916   4.477   0.260   1.145
  374DIO     O320917   4.408   0.385   1.145
  374DIO    C2120918   4.364   0.424   1.275
  374DIO    C2220919   4.275   0.316   1.337
  374DIO    C2320920   4.356   0.186   1.336
  374DIO     O420921   4.400   0.155   1.204
  374DIO    C2420922   4.142   0.296   1.260
  374DIO    C2520923   4.052   0.419   1.250
  374DIO    C2620924   4.013   0.478   1.385
  374DIO     H120925   5.734   0.205   1.260
  374DIO     H220926   5.692   0.557   1.527
  374DIO     H320927   5.515   0.591   1.308
  374DIO     H420928   5.264   0.580   1.280
  374DIO     H520929   5.265   0.160   1.402
  374DIO     H620930   4.656   0.479   1.140
  374DIO     H720931   4.644   0.051   1.234
  374DIO     H820932   4.487   0.232   1.039
  374DIO     H920933   4.451   0.443   1.339
  374DIO    H1020934   4.311   0.519   1.266
  374DIO    H1120935   4.252   0.343   1.441
  374DIO    H1220936   4.295   0.103   1.372
  374DIO    H1320937   4.442   0.194   1.404
  374DIO    H1420938   4.162   0.260   1.159
  374DIO    H1520939   4.086   0.216   1.310
  374DIO    H1620940   4.099   0.496   1.189
  374DIO    H1720941   3.960   0.390   1.198
  374DIO    H1820942   3.969   0.403   1.451
  374DIO    H1920943   4.100   0.522   1.436
  374DIO    H2020944   3.939   0.558   1.371
  375DIO     F120945   5.149   3.444   5.535
  375DIO     C120946   5.071   3.335   5.520
  375DIO     C220947   4.927   3.349   5.531
  375DIO     C320948   4.838   3.231   5.517
  375DIO     C420949   4.904   3.101   5.490
  375DIO     C520950   5.048   3.090   5.480
  375DIO     F220951   5.104   2.971   5.452
  375DIO     C620952   5.132   3.207   5.495
  375DIO     F320953   5.266   3.195   5.486
  375DIO     C720954   4.692   3.242   5.529
  375DIO     C820955   4.615   3.153   5.618
  375DIO     C920956   4.470   3.163   5.629
  375DIO    C1020957   4.398   3.256   5.544
  375DIO    C1120958   4.470   3.351   5.461
  375DIO    C1220959   4.614   3.342   5.452
  375DIO     F420960   4.679   3.427   5.370
  375DIO     O120961   4.265   3.278   5.577
  375DIO    C1320962   4.171   3.303   5.478
  375DIO     O220963   4.170   3.283   5.353
  375DIO    C1420964   4.042   3.346   5.532
  375DIO    C1520965   3.976   3.273   5.643
  375DIO     F520966   4.038   3.169   5.702
  375DIO    C1620967   3.845   3.309   5.694
  375DIO    C1720968   3.769   3.418   5.632
  375DIO    C1820969   3.838   3.502   5.535
  375DIO    C1920970   3.969   3.466   5.485
  375DIO     F620971   4.032   3.557   5.407
  375DIO    C2020972   3.628   3.450   5.676
  375DIO     O320973   3.559   3.338   5.733
  375DIO    C2120974   3.515   3.245   5.634
  375DIO    C2220975   3.426   3.313   5.531
  375DIO    C2320976   3.507   3.429   5.473
  375DIO     O420977   3.551   3.517   5.576
  375DIO    C2420978   3.293   3.366   5.590
  375DIO    C2520979   3.203   3.260   5.654
  375DIO    C2620980   3.164   3.147   5.561
  375DIO     H120981   4.885   3.447   5.549
  375DIO     H220982   4.843   3.013   5.470
  375DIO     H320983   4.666   3.081   5.681
  375DIO     H420984   4.415   3.104   5.700
  375DIO     H520985   4.416   3.423   5.402
  375DIO     H620986   3.807   3.257   5.780
  375DIO     H720987   3.795   3.596   5.503
  375DIO     H820988   3.638   3.522   5.758
  375DIO     H920989   3.602   3.199   5.586
  375DIO    H1020990   3.462   3.165   5.686
  375DIO    H1120991   3.403   3.243   5.450
  375DIO    H1220992   3.446   3.488   5.403
  375DIO    H1320993   3.593   3.393   5.416
  375DIO    H1420994   3.313   3.444   5.665
  375DIO    H1520995   3.237   3.415   5.509
  375DIO    H1620996   3.250   3.220   5.744
  375DIO    H1720997   3.111   3.310   5.688
  375DIO    H1820998   3.120   3.185   5.468
  375DIO    H1920999   3.251   3.085   5.535
  375DIO    H2021000   3.090   3.082   5.609
  376DIO     F121001  10.592   2.948   9.532
  376DIO     C121002  10.515   2.842   9.500
  376DIO     C221003  10.371   2.854   9.512
  376DIO     C321004  10.282   2.740   9.480
  376DIO     C421005  10.347   2.616   9.433
  376DIO     C521006  10.492   2.607   9.421
  376DIO     F221007  10.547   2.493   9.374
  376DIO     C621008  10.575   2.720   9.454
  376DIO     F321009  10.709   2.710   9.444
  376DIO     C721010  10.136   2.749   9.493
  376DIO     C821011  10.058   2.646   9.567
  376DIO     C921012   9.914   2.655   9.579
  376DIO    C1021013   9.841   2.760   9.510
  376DIO    C1121014   9.914   2.867   9.443
  376DIO    C1221015  10.058   2.859   9.433
  376DIO     F421016  10.123   2.957   9.366
  376DIO     O121017   9.709   2.777   9.546
  376DIO    C1321018   9.614   2.817   9.452
  376DIO     O221019   9.614   2.818   9.326
  376DIO    C1421020   9.485   2.851   9.513
  376DIO    C1521021   9.419   2.761   9.610
  376DIO     F521022   9.482   2.649   9.652
  376DIO    C1621023   9.288   2.789   9.666
  376DIO    C1721024   9.212   2.906   9.623
  376DIO    C1821025   9.281   3.005   9.541
  376DIO    C1921026   9.413   2.977   9.486
  376DIO     F621027   9.475   3.079   9.423
  376DIO    C2021028   9.072   2.931   9.672
  376DIO     O321029   9.002   2.811   9.710
  376DIO    C2121030   8.958   2.735   9.598
  376DIO    C2221031   8.869   2.819   9.506
  376DIO    C2321032   8.950   2.943   9.468
  376DIO     O421033   8.994   3.013   9.584
  376DIO    C2421034   8.737   2.861   9.573
  376DIO    C2521035   8.646   2.747   9.620
  376DIO    C2621036   8.608   2.650   9.509
  376DIO     H121037  10.328   2.948   9.546
  376DIO     H221038  10.287   2.532   9.398
  376DIO     H321039  10.110   2.566   9.617
  376DIO     H421040   9.859   2.585   9.640
  376DIO     H521041   9.859   2.948   9.397
  376DIO     H621042   9.250   2.723   9.744
  376DIO     H721043   9.238   3.103   9.524
  376DIO     H821044   9.081   2.989   9.764
  376DIO     H921045   9.045   2.697   9.543
  376DIO    H1021046   8.906   2.647   9.636
  376DIO    H1121047   8.847   2.762   9.415
  376DIO    H1221048   8.889   3.012   9.409
  376DIO    H1321049   9.036   2.916   9.405
  376DIO    H1421050   8.757   2.926   9.659
  376DIO    H1521051   8.680   2.923   9.501
  376DIO    H1621052   8.693   2.692   9.702
  376DIO    H1721053   8.554   2.791   9.661
  376DIO    H1821054   8.564   2.702   9.424
  376DIO    H1921055   8.694   2.593   9.474
  376DIO    H2021056   8.534   2.578   9.547
  377DIO     F121057  10.282   8.894   9.439
  377DIO     C121058  10.204   8.791   9.477
  377DIO     C221059  10.060   8.807   9.480
  377DIO     C321060   9.971   8.697   9.523
  377DIO     C421061  10.037   8.569   9.560
  377DIO     C521062  10.181   8.555   9.556
  377DIO     F221063  10.236   8.436   9.586
  377DIO     C621064  10.265   8.665   9.514
  377DIO     F321065  10.398   8.651   9.512
  377DIO     C721066   9.825   8.712   9.528
  377DIO     C821067   9.748   8.675   9.649
  377DIO     C921068   9.603   8.689   9.653
  377DIO    C1021069   9.530   8.732   9.535
  377DIO    C1121070   9.603   8.777   9.417
  377DIO    C1221071   9.747   8.765   9.414
  377DIO     F421072   9.812   8.802   9.302
  377DIO     O121073   9.398   8.766   9.554
  377DIO    C1321074   9.304   8.742   9.454
  377DIO     O221075   9.303   8.667   9.353
  377DIO    C1421076   9.174   8.806   9.483
  377DIO    C1521077   9.108   8.792   9.614
  377DIO     F521078   9.171   8.728   9.715
  377DIO    C1621079   8.977   8.849   9.642
  377DIO    C1721080   8.902   8.916   9.537
  377DIO    C1821081   8.970   8.945   9.412
  377DIO    C1921082   9.102   8.890   9.385
  377DIO     F621083   9.164   8.934   9.273
  377DIO    C2021084   8.761   8.965   9.562
  377DIO     O321085   8.691   8.893   9.664
  377DIO    C2121086   8.647   8.764   9.620
  377DIO    C2221087   8.559   8.776   9.496
  377DIO    C2321088   8.639   8.852   9.391
  377DIO     O421089   8.684   8.977   9.442
  377DIO    C2421090   8.426   8.850   9.524
  377DIO    C2521091   8.335   8.787   9.630
  377DIO    C2621092   8.297   8.643   9.601
  377DIO     H121093  10.017   8.903   9.450
  377DIO     H221094   9.976   8.482   9.583
  377DIO     H321095   9.799   8.641   9.737
  377DIO     H421096   9.548   8.670   9.744
  377DIO     H521097   9.548   8.813   9.332
  377DIO     H621098   8.939   8.843   9.744
  377DIO     H721099   8.927   9.013   9.340
  377DIO     H821100   8.771   9.067   9.600
  377DIO     H921101   8.734   8.701   9.599
  377DIO    H1021102   8.595   8.717   9.703
  377DIO    H1121103   8.536   8.676   9.458
  377DIO    H1221104   8.578   8.871   9.302
  377DIO    H1321105   8.725   8.793   9.358
  377DIO    H1421106   8.446   8.954   9.554
  377DIO    H1521107   8.369   8.856   9.430
  377DIO    H1621108   8.382   8.793   9.729
  377DIO    H1721109   8.243   8.847   9.637
  377DIO    H1821110   8.253   8.633   9.501
  377DIO    H1921111   8.383   8.576   9.607
  377DIO    H2021112   8.223   8.608   9.674
  378DIO     F121113  10.974   7.210   2.806
  378DIO     C121114  10.896   7.290   2.881
  378DIO     C221115  10.752   7.286   2.865
  378DIO     C321116  10.664   7.374   2.943
  378DIO     C421117  10.729   7.466   3.039
  378DIO     C521118  10.873   7.469   3.054
  378DIO     F221119  10.929   7.550   3.146
  378DIO     C621120  10.957   7.381   2.975
  378DIO     F321121  11.091   7.386   2.989
  378DIO     C721122  10.517   7.372   2.927
  378DIO     C821123  10.440   7.496   2.905
  378DIO     C921124  10.295   7.494   2.890
  378DIO    C1021125  10.223   7.369   2.907
  378DIO    C1121126  10.295   7.244   2.921
  378DIO    C1221127  10.439   7.246   2.933
  378DIO     F421128  10.504   7.130   2.952
  378DIO     O121129  10.091   7.370   2.867
  378DIO    C1321130   9.996   7.292   2.934
  378DIO     O221131   9.995   7.237   3.048
  378DIO    C1421132   9.867   7.289   2.865
  378DIO    C1521133   9.801   7.412   2.816
  378DIO     F521134   9.863   7.531   2.827
  378DIO    C1621135   9.670   7.411   2.754
  378DIO    C1721136   9.594   7.287   2.742
  378DIO    C1821137   9.663   7.162   2.773
  378DIO    C1921138   9.794   7.163   2.835
  378DIO     F621139   9.857   7.044   2.848
  378DIO    C2021140   9.453   7.285   2.687
  378DIO     O321141   9.384   7.409   2.705
  378DIO    C2121142   9.340   7.429   2.839
  378DIO    C2221143   9.251   7.314   2.885
  378DIO    C2321144   9.332   7.186   2.866
  378DIO     O421145   9.376   7.173   2.731
  378DIO    C2421146   9.118   7.305   2.807
  378DIO    C2521147   9.028   7.428   2.814
  378DIO    C2621148   8.989   7.468   2.955
  378DIO     H121149  10.710   7.215   2.794
  378DIO     H221150  10.668   7.526   3.106
  378DIO     H321151  10.492   7.591   2.895
  378DIO     H421152  10.240   7.583   2.866
  378DIO     H521153  10.241   7.151   2.928
  378DIO     H621154   9.632   7.503   2.712
  378DIO     H721155   9.620   7.066   2.746
  378DIO     H821156   9.463   7.273   2.579
  378DIO     H921157   9.427   7.440   2.905
  378DIO    H1021158   9.287   7.525   2.843
  378DIO    H1121159   9.229   7.326   2.991
  378DIO    H1221160   9.271   7.098   2.889
  378DIO    H1321161   9.418   7.184   2.934
  378DIO    H1421162   9.138   7.284   2.701
  378DIO    H1521163   9.062   7.219   2.845
  378DIO    H1621164   9.075   7.513   2.763
  378DIO    H1721165   8.936   7.407   2.757
  378DIO    H1821166   8.945   7.384   3.010
  378DIO    H1921167   9.076   7.505   3.012
  378DIO    H2021168   8.916   7.549   2.953
  379DIO     F121169   9.696  10.122   8.094
  379DIO     C121170   9.619  10.231   8.079
  379DIO     C221171   9.475  10.215   8.073
  379DIO     C321172   9.386  10.332   8.055
  379DIO     C421173   9.451  10.465   8.047
  379DIO     C521174   9.596  10.478   8.054
  379DIO     F221175   9.651  10.601   8.050
  379DIO     C621176   9.679  10.362   8.071
  379DIO     F321177   9.813  10.375   8.076
  379DIO     C721178   9.239  10.319   8.047
  379DIO     C821179   9.162  10.382   7.937
  379DIO     C921180   9.018  10.368   7.930
  379DIO    C1021181   8.945  10.301   8.036
  379DIO    C1121182   9.018  10.232   8.141
  379DIO    C1221183   9.162  10.243   8.147
  379DIO     F421184   9.227  10.182   8.248
  379DIO     O121185   8.813  10.272   8.010
  379DIO    C1321186   8.718  10.273   8.112
  379DIO     O221187   8.717  10.325   8.227
  379DIO    C1421188   8.589  10.217   8.070
  379DIO    C1521189   8.523  10.259   7.945
  379DIO     F521190   8.586  10.344   7.861
  379DIO    C1621191   8.392  10.211   7.905
  379DIO    C1721192   8.316  10.122   7.993
  379DIO    C1821193   8.385  10.066   8.109
  379DIO    C1921194   8.517  10.114   8.147
  379DIO     F621195   8.579  10.047   8.247
  379DIO    C2021196   8.176  10.079   7.959
  379DIO     O321197   8.106  10.172   7.875
  379DIO    C2121198   8.062  10.288   7.946
  379DIO    C2221199   7.973  10.249   8.064
  379DIO    C2321200   8.054  10.153   8.150
  379DIO     O421201   8.098  10.041   8.073
  379DIO    C2421202   7.841  10.183   8.020
  379DIO    C2521203   7.750  10.268   7.931
  379DIO    C2621204   7.711  10.402   7.991
  379DIO     H121205   9.432  10.116   8.081
  379DIO     H221206   9.391  10.555   8.044
  379DIO     H321207   9.214  10.434   7.858
  379DIO     H421208   8.963  10.407   7.845
  379DIO     H521209   8.963  10.177   8.216
  379DIO     H621210   8.354  10.239   7.808
  379DIO     H721211   8.342   9.984   8.165
  379DIO     H821212   8.185   9.988   7.899
  379DIO     H921213   8.149  10.345   7.980
  379DIO    H1021214   8.009  10.352   7.875
  379DIO    H1121215   7.951  10.339   8.123
  379DIO    H1221216   7.993  10.114   8.232
  379DIO    H1321217   8.140  10.203   8.195
  379DIO    H1421218   7.860  10.089   7.969
  379DIO    H1521219   7.784  10.157   8.111
  379DIO    H1621220   7.797  10.284   7.833
  379DIO    H1721221   7.658  10.211   7.911
  379DIO    H1821222   7.668  10.390   8.090
  379DIO    H1921223   7.798  10.469   7.999
  379DIO    H2021224   7.638  10.452   7.927
  380DIO     F121225   5.815   3.814   2.671
  380DIO     C121226   5.738   3.778   2.567
  380DIO     C221227   5.593   3.775   2.583
  380DIO     C321228   5.505   3.733   2.473
  380DIO     C421229   5.570   3.698   2.344
  380DIO     C521230   5.714   3.702   2.330
  380DIO     F221231   5.770   3.673   2.211
  380DIO     C621232   5.798   3.742   2.441
  380DIO     F321233   5.932   3.745   2.427
  380DIO     C721234   5.358   3.728   2.488
  380DIO     C821235   5.281   3.608   2.449
  380DIO     C921236   5.136   3.603   2.463
  380DIO    C1021237   5.064   3.721   2.507
  380DIO    C1121238   5.136   3.838   2.553
  380DIO    C1221239   5.280   3.842   2.541
  380DIO     F421240   5.345   3.953   2.580
  380DIO     O121241   4.932   3.702   2.541
  380DIO    C1321242   4.837   3.801   2.519
  380DIO     O221243   4.836   3.903   2.444
  380DIO    C1421244   4.708   3.772   2.582
  380DIO    C1521245   4.642   3.641   2.567
  380DIO     F521246   4.704   3.541   2.501
  380DIO    C1621247   4.511   3.612   2.623
  380DIO    C1721248   4.435   3.716   2.691
  380DIO    C1821249   4.504   3.841   2.722
  380DIO    C1921250   4.636   3.869   2.667
  380DIO     F621251   4.698   3.980   2.712
  380DIO    C2021252   4.294   3.691   2.740
  380DIO     O321253   4.225   3.590   2.666
  380DIO    C2121254   4.181   3.636   2.539
  380DIO    C2221255   4.092   3.759   2.552
  380DIO    C2321256   4.173   3.863   2.629
  380DIO     O421257   4.217   3.811   2.754
  380DIO    C2421258   3.959   3.730   2.625
  380DIO    C2521259   3.869   3.625   2.561
  380DIO    C2621260   3.830   3.656   2.417
  380DIO     H121261   5.551   3.803   2.679
  380DIO     H221262   5.510   3.676   2.257
  380DIO     H321263   5.333   3.520   2.414
  380DIO     H421264   5.081   3.512   2.443
  380DIO     H521265   5.082   3.923   2.591
  380DIO     H621266   4.473   3.511   2.615
  380DIO     H721267   4.461   3.913   2.791
  380DIO     H821268   4.304   3.651   2.842
  380DIO     H921269   4.268   3.657   2.475
  380DIO    H1021270   4.128   3.553   2.490
  380DIO    H1121271   4.070   3.798   2.452
  380DIO    H1221272   4.112   3.952   2.650
  380DIO    H1321273   4.259   3.897   2.570
  380DIO    H1421274   3.979   3.699   2.729
  380DIO    H1521275   3.903   3.824   2.632
  380DIO    H1621276   3.916   3.526   2.566
  380DIO    H1721277   3.777   3.617   2.621
  380DIO    H1821278   3.786   3.756   2.409
  380DIO    H1921279   3.917   3.650   2.351
  380DIO    H2021280   3.757   3.583   2.382
  381DIO     F121281   3.058   2.764   1.837
  381DIO     C121282   2.980   2.685   1.913
  381DIO     C221283   2.836   2.701   1.910
  381DIO     C321284   2.747   2.617   1.993
  381DIO     C421285   2.813   2.515   2.078
  381DIO     C521286   2.957   2.501   2.080
  381DIO     F221287   3.012   2.404   2.156
  381DIO     C621288   3.041   2.585   1.998
  381DIO     F321289   3.174   2.571   2.002
  381DIO     C721290   2.601   2.633   1.992
  381DIO     C821291   2.524   2.647   2.117
  381DIO     C921292   2.379   2.662   2.116
  381DIO    C1021293   2.306   2.654   1.990
  381DIO    C1121294   2.379   2.648   1.864
  381DIO    C1221295   2.523   2.635   1.866
  381DIO     F421296   2.588   2.624   1.748
  381DIO     O121297   2.174   2.693   1.994
  381DIO    C1321298   2.080   2.631   1.912
  381DIO     O221299   2.079   2.522   1.850
  381DIO    C1421300   1.951   2.701   1.913
  381DIO    C1521301   1.884   2.741   2.039
  381DIO     F521302   1.947   2.723   2.157
  381DIO    C1621303   1.753   2.804   2.042
  381DIO    C1721304   1.678   2.824   1.918
  381DIO    C1821305   1.746   2.800   1.792
  381DIO    C1921306   1.878   2.739   1.789
  381DIO     F621307   1.941   2.734   1.670
  381DIO    C2021308   1.537   2.878   1.921
  381DIO     O321309   1.467   2.853   2.043
  381DIO    C2121310   1.424   2.718   2.055
  381DIO    C2221311   1.335   2.679   1.937
  381DIO    C2321312   1.415   2.706   1.810
  381DIO     O421313   1.460   2.842   1.806
  381DIO    C2421314   1.202   2.758   1.933
  381DIO    C2521315   1.111   2.743   2.055
  381DIO    C2621316   1.073   2.599   2.086
  381DIO     H121317   2.793   2.777   1.844
  381DIO     H221318   2.752   2.444   2.134
  381DIO     H321319   2.575   2.652   2.212
  381DIO     H421320   2.324   2.681   2.207
  381DIO     H521321   2.324   2.647   1.771
  381DIO     H621322   1.715   2.839   2.137
  381DIO     H721323   1.704   2.834   1.698
  381DIO     H821324   1.547   2.987   1.916
  381DIO     H921325   1.510   2.651   2.061
  381DIO    H1021326   1.371   2.708   2.150
  381DIO    H1121327   1.312   2.572   1.942
  381DIO    H1221328   1.354   2.689   1.721
  381DIO    H1321329   1.502   2.639   1.803
  381DIO    H1421330   1.222   2.865   1.919
  381DIO    H1521331   1.145   2.726   1.844
  381DIO    H1621332   1.159   2.788   2.143
  381DIO    H1721333   1.019   2.800   2.038
  381DIO    H1821334   1.029   2.550   1.999
  381DIO    H1921335   1.159   2.540   2.119
  381DIO    H2021336   0.999   2.596   2.167
  382DIO     F121337   9.527   2.184   6.651
  382DIO     C121338   9.450   2.294   6.655
  382DIO     C221339   9.306   2.280   6.646
  382DIO     C321340   9.217   2.399   6.649
  382DIO     C421341   9.282   2.531   6.664
  382DIO     C521342   9.427   2.542   6.673
  382DIO     F221343   9.482   2.664   6.691
  382DIO     C621344   9.510   2.425   6.669
  382DIO     F321345   9.644   2.437   6.677
  382DIO     C721346   9.071   2.386   6.639
  382DIO     C821347   8.993   2.467   6.542
  382DIO     C921348   8.849   2.456   6.532
  382DIO    C1021349   8.776   2.371   6.625
  382DIO    C1121350   8.849   2.285   6.716
  382DIO    C1221351   8.993   2.294   6.724
  382DIO     F421352   9.058   2.217   6.813
  382DIO     O121353   8.644   2.346   6.594
  382DIO    C1321354   8.549   2.330   6.695
  382DIO     O221355   8.549   2.361   6.817
  382DIO    C1421356   8.420   2.283   6.644
  382DIO    C1521357   8.354   2.346   6.528
  382DIO     F521358   8.417   2.444   6.459
  382DIO    C1621359   8.223   2.304   6.481
  382DIO    C1721360   8.147   2.202   6.552
  382DIO    C1821361   8.216   2.127   6.656
  382DIO    C1921362   8.348   2.167   6.702
  382DIO     F621363   8.410   2.084   6.789
  382DIO    C2021364   8.007   2.166   6.511
  382DIO     O321365   7.937   2.272   6.444
  382DIO    C2121366   7.893   2.374   6.534
  382DIO    C2221367   7.804   2.315   6.643
  382DIO    C2321368   7.885   2.205   6.712
  382DIO     O421369   7.929   2.108   6.617
  382DIO    C2421370   7.672   2.258   6.589
  382DIO    C2521371   7.581   2.357   6.515
  382DIO    C2621372   7.543   2.478   6.598
  382DIO     H121373   9.263   2.181   6.637
  382DIO     H221374   9.222   2.620   6.676
  382DIO     H321375   9.045   2.533   6.473
  382DIO     H421376   8.794   2.509   6.455
  382DIO     H521377   8.794   2.218   6.781
  382DIO     H621378   8.185   2.349   6.389
  382DIO     H721379   8.173   2.036   6.697
  382DIO     H821380   8.016   2.087   6.435
  382DIO     H921381   7.980   2.424   6.578
  382DIO    H1021382   7.841   2.449   6.475
  382DIO    H1121383   7.782   2.393   6.717
  382DIO    H1221384   7.824   2.153   6.786
  382DIO    H1321385   7.971   2.247   6.765
  382DIO    H1421386   7.692   2.173   6.522
  382DIO    H1521387   7.615   2.216   6.674
  382DIO    H1621388   7.628   2.389   6.422
  382DIO    H1721389   7.489   2.304   6.486
  382DIO    H1821390   7.499   2.449   6.694
  382DIO    H1921391   7.629   2.542   6.618
  382DIO    H2021392   7.469   2.539   6.544
  383DIO     F121393  10.277   4.731   4.030
  383DIO     C121394  10.199   4.672   3.937
  383DIO     C221395  10.055   4.673   3.954
  383DIO     C321396   9.966   4.607   3.856
  383DIO     C421397  10.032   4.544   3.739
  383DIO     C521398  10.176   4.544   3.724
  383DIO     F221399  10.231   4.489   3.615
  383DIO     C621400  10.260   4.609   3.823
  383DIO     F321401  10.393   4.608   3.809
  383DIO     C721402   9.820   4.606   3.872
  383DIO     C821403   9.743   4.480   3.861
  383DIO     C921404   9.598   4.478   3.876
  383DIO    C1021405   9.525   4.603   3.892
  383DIO    C1121406   9.598   4.727   3.911
  383DIO    C1221407   9.742   4.728   3.898
  383DIO     F421408   9.807   4.846   3.910
  383DIO     O121409   9.393   4.592   3.930
  383DIO    C1321410   9.299   4.684   3.885
  383DIO     O221411   9.298   4.766   3.790
  383DIO    C1421412   9.170   4.670   3.954
  383DIO    C1521413   9.103   4.538   3.969
  383DIO     F521414   9.166   4.426   3.928
  383DIO    C1621415   8.972   4.523   4.030
  383DIO    C1721416   8.897   4.640   4.073
  383DIO    C1821417   8.965   4.769   4.075
  383DIO    C1921418   9.097   4.783   4.015
  383DIO     F621419   9.160   4.902   4.033
  383DIO    C2021420   8.756   4.627   4.126
  383DIO     O321421   8.686   4.512   4.077
  383DIO    C2121422   8.643   4.527   3.942
  383DIO    C2221423   8.554   4.650   3.927
  383DIO    C2321424   8.634   4.769   3.979
  383DIO     O421425   8.679   4.747   4.112
  383DIO    C2421426   8.421   4.639   4.006
  383DIO    C2521427   8.330   4.522   3.967
  383DIO    C2621428   8.292   4.520   3.820
  383DIO     H121429  10.012   4.722   4.041
  383DIO     H221430   9.971   4.503   3.659
  383DIO     H321431   9.794   4.386   3.847
  383DIO     H421432   9.543   4.385   3.877
  383DIO     H521433   9.543   4.819   3.928
  383DIO     H621434   8.934   4.423   4.045
  383DIO     H721435   8.923   4.854   4.125
  383DIO     H821436   8.766   4.611   4.234
  383DIO     H921437   8.729   4.534   3.876
  383DIO    H1021438   8.590   4.436   3.914
  383DIO    H1121439   8.531   4.666   3.821
  383DIO    H1221440   8.573   4.860   3.979
  383DIO    H1321441   8.721   4.789   3.914
  383DIO    H1421442   8.441   4.632   4.113
  383DIO    H1521443   8.364   4.732   3.991
  383DIO    H1621444   8.378   4.426   3.994
  383DIO    H1721445   8.238   4.528   4.027
  383DIO    H1821446   8.248   4.615   3.789
  383DIO    H1921447   8.378   4.499   3.756
  383DIO    H2021448   8.218   4.441   3.801
  384DIO     F121449   3.338   8.252  -0.664
  384DIO     C121450   3.261   8.172  -0.589
  384DIO     C221451   3.117   8.188  -0.592
  384DIO     C321452   3.028   8.104  -0.509
  384DIO     C421453   3.093   8.001  -0.425
  384DIO     C521454   3.238   7.986  -0.423
  384DIO     F221455   3.293   7.889  -0.349
  384DIO     C621456   3.321   8.071  -0.505
  384DIO     F321457   3.455   8.057  -0.501
  384DIO     C721458   2.881   8.120  -0.511
  384DIO     C821459   2.804   8.133  -0.385
  384DIO     C921460   2.660   8.148  -0.387
  384DIO    C1021461   2.587   8.141  -0.512
  384DIO    C1121462   2.660   8.135  -0.638
  384DIO    C1221463   2.804   8.123  -0.636
  384DIO     F421464   2.869   8.113  -0.754
  384DIO     O121465   2.455   8.179  -0.508
  384DIO    C1321466   2.360   8.118  -0.590
  384DIO     O221467   2.359   8.009  -0.653
  384DIO    C1421468   2.231   8.188  -0.589
  384DIO    C1521469   2.165   8.227  -0.463
  384DIO     F521470   2.228   8.208  -0.345
  384DIO    C1621471   2.034   8.290  -0.459
  384DIO    C1721472   1.958   8.311  -0.582
  384DIO    C1821473   2.027   8.289  -0.709
  384DIO    C1921474   2.159   8.227  -0.712
  384DIO     F621475   2.221   8.223  -0.832
  384DIO    C2021476   1.818   8.365  -0.579
  384DIO     O321477   1.748   8.339  -0.457
  384DIO    C2121478   1.704   8.204  -0.447
  384DIO    C2221479   1.615   8.166  -0.565
  384DIO    C2321480   1.696   8.194  -0.692
  384DIO     O421481   1.740   8.330  -0.694
  384DIO    C2421482   1.483   8.245  -0.569
  384DIO    C2521483   1.392   8.229  -0.446
  384DIO    C2621484   1.353   8.085  -0.417
  384DIO     H121485   3.074   8.264  -0.657
  384DIO     H221486   3.033   7.930  -0.370
  384DIO     H321487   2.856   8.136  -0.290
  384DIO     H421488   2.605   8.166  -0.295
  384DIO     H521489   2.605   8.135  -0.731
  384DIO     H621490   1.996   8.324  -0.364
  384DIO     H721491   1.984   8.323  -0.802
  384DIO     H821492   1.827   8.475  -0.584
  384DIO     H921493   1.791   8.137  -0.441
  384DIO    H1021494   1.651   8.193  -0.352
  384DIO    H1121495   1.593   8.059  -0.561
  384DIO    H1221496   1.635   8.177  -0.781
  384DIO    H1321497   1.782   8.127  -0.699
  384DIO    H1421498   1.502   8.352  -0.582
  384DIO    H1521499   1.426   8.213  -0.657
  384DIO    H1621500   1.439   8.273  -0.358
  384DIO    H1721501   1.300   8.286  -0.463
  384DIO    H1821502   1.310   8.037  -0.505
  384DIO    H1921503   1.440   8.026  -0.385
  384DIO    H2021504   1.280   8.081  -0.336
  385DIO     F121505   3.735   0.883   3.147
  385DIO     C121506   3.658   0.870   3.038
  385DIO     C221507   3.513   0.863   3.054
  385DIO     C321508   3.425   0.848   2.936
  385DIO     C421509   3.490   0.842   2.803
  385DIO     C521510   3.634   0.849   2.791
  385DIO     F221511   3.690   0.847   2.668
  385DIO     C621512   3.718   0.864   2.907
  385DIO     F321513   3.852   0.869   2.894
  385DIO     C721514   3.278   0.839   2.950
  385DIO     C821515   3.201   0.731   2.885
  385DIO     C921516   3.056   0.723   2.898
  385DIO    C1021517   2.984   0.828   2.967
  385DIO    C1121518   3.056   0.932   3.038
  385DIO    C1221519   3.200   0.938   3.028
  385DIO     F421520   3.265   1.038   3.090
  385DIO     O121521   2.852   0.802   2.996
  385DIO    C1321522   2.757   0.904   2.996
  385DIO     O221523   2.756   1.020   2.947
  385DIO    C1421524   2.628   0.861   3.052
  385DIO    C1521525   2.562   0.736   3.007
  385DIO     F521526   2.624   0.653   2.921
  385DIO    C1621527   2.431   0.696   3.056
  385DIO    C1721528   2.355   0.782   3.146
  385DIO    C1821529   2.424   0.897   3.204
  385DIO    C1921530   2.556   0.936   3.156
  385DIO     F621531   2.618   1.035   3.225
  385DIO    C2021532   2.214   0.747   3.188
  385DIO     O321533   2.145   0.665   3.093
  385DIO    C2121534   2.101   0.738   2.979
  385DIO    C2221535   2.012   0.855   3.019
  385DIO    C2321536   2.093   0.940   3.118
  385DIO     O421537   2.137   0.861   3.228
  385DIO    C2421538   1.879   0.810   3.085
  385DIO    C2521539   1.789   0.722   2.998
  385DIO    C2621540   1.750   0.785   2.865
  385DIO     H121541   3.471   0.870   3.153
  385DIO     H221542   3.430   0.840   2.713
  385DIO     H321543   3.253   0.653   2.831
  385DIO     H421544   3.001   0.639   2.858
  385DIO     H521545   3.002   1.006   3.094
  385DIO     H621546   2.393   0.599   3.026
  385DIO     H721547   2.381   0.951   3.287
  385DIO     H821548   2.224   0.685   3.278
  385DIO     H921549   2.188   0.773   2.922
  385DIO    H1021550   2.048   0.668   2.913
  385DIO    H1121551   1.990   0.916   2.931
  385DIO    H1221552   2.032   1.021   3.158
  385DIO    H1321553   2.179   0.986   3.068
  385DIO    H1421554   1.899   0.757   3.178
  385DIO    H1521555   1.823   0.900   3.113
  385DIO    H1621556   1.836   0.625   2.981
  385DIO    H1721557   1.697   0.702   3.055
  385DIO    H1821558   1.706   0.884   2.880
  385DIO    H1921559   1.837   0.794   2.799
  385DIO    H2021560   1.677   0.722   2.814
  386DIO     F121561   4.733   7.814   6.429
  386DIO     C121562   4.655   7.921   6.402
  386DIO     C221563   4.511   7.904   6.397
  386DIO     C321564   4.423   8.018   6.366
  386DIO     C421565   4.488   8.149   6.342
  386DIO     C521566   4.632   8.163   6.348
  386DIO     F221567   4.688   8.284   6.330
  386DIO     C621568   4.716   8.049   6.378
  386DIO     F321569   4.850   8.063   6.382
  386DIO     C721570   4.276   8.004   6.360
  386DIO     C821571   4.199   8.053   6.243
  386DIO     C921572   4.054   8.039   6.237
  386DIO    C1021573   3.982   7.985   6.350
  386DIO    C1121574   4.054   7.929   6.463
  386DIO    C1221575   4.198   7.940   6.468
  386DIO     F421576   4.263   7.892   6.576
  386DIO     O121577   3.850   7.953   6.328
  386DIO    C1321578   3.755   7.966   6.430
  386DIO     O221579   3.754   8.031   6.538
  386DIO    C1421580   3.626   7.906   6.395
  386DIO    C1521581   3.560   7.933   6.265
  386DIO     F521582   3.622   8.007   6.172
  386DIO    C1621583   3.429   7.880   6.232
  386DIO    C1721584   3.353   7.802   6.329
  386DIO    C1821585   3.422   7.760   6.451
  386DIO    C1921586   3.553   7.812   6.484
  386DIO     F621587   3.616   7.758   6.590
  386DIO    C2021588   3.212   7.756   6.300
  386DIO     O321589   3.143   7.838   6.206
  386DIO    C2121590   3.099   7.961   6.263
  386DIO    C2221591   3.010   7.937   6.384
  386DIO    C2321592   3.091   7.851   6.482
  386DIO     O421593   3.135   7.731   6.418
  386DIO    C2421594   2.877   7.866   6.349
  386DIO    C2521595   2.787   7.940   6.250
  386DIO    C2621596   2.748   8.080   6.294
  386DIO     H121597   4.469   7.807   6.417
  386DIO     H221598   4.427   8.238   6.329
  386DIO     H321599   4.251   8.096   6.159
  386DIO     H421600   3.999   8.068   6.149
  386DIO     H521601   4.000   7.883   6.545
  386DIO     H621602   3.391   7.896   6.132
  386DIO     H721603   3.379   7.685   6.516
  386DIO     H821604   3.222   7.658   6.251
  386DIO     H921605   3.186   8.022   6.290
  386DIO    H1021606   3.046   8.017   6.185
  386DIO    H1121607   2.988   8.033   6.433
  386DIO    H1221608   3.030   7.822   6.568
  386DIO    H1321609   3.177   7.907   6.521
  386DIO    H1421610   2.897   7.766   6.309
  386DIO    H1521611   2.821   7.851   6.442
  386DIO    H1621612   2.834   7.944   6.151
  386DIO    H1721613   2.695   7.881   6.237
  386DIO    H1821614   2.704   8.080   6.394
  386DIO    H1921615   2.835   8.147   6.295
  386DIO    H2021616   2.675   8.122   6.225
  387DIO     F121617   8.165   6.869   7.409
  387DIO     C121618   8.088   6.760   7.422
  387DIO     C221619   7.943   6.775   7.429
  387DIO     C321620   7.855   6.658   7.445
  387DIO     C421621   7.920   6.525   7.451
  387DIO     C521622   8.064   6.512   7.444
  387DIO     F221623   8.120   6.390   7.446
  387DIO     C621624   8.148   6.629   7.429
  387DIO     F321625   8.282   6.616   7.424
  387DIO     C721626   7.708   6.672   7.453
  387DIO     C821627   7.631   6.607   7.562
  387DIO     C921628   7.486   6.620   7.570
  387DIO    C1021629   7.414   6.689   7.465
  387DIO    C1121630   7.486   6.760   7.361
  387DIO    C1221631   7.630   6.749   7.354
  387DIO     F421632   7.695   6.811   7.254
  387DIO     O121633   7.282   6.718   7.491
  387DIO    C1321634   7.187   6.718   7.389
  387DIO     O221635   7.186   6.668   7.273
  387DIO    C1421636   7.058   6.773   7.431
  387DIO    C1521637   6.992   6.729   7.556
  387DIO     F521638   7.054   6.644   7.639
  387DIO    C1621639   6.861   6.778   7.596
  387DIO    C1721640   6.785   6.867   7.510
  387DIO    C1821641   6.854   6.925   7.395
  387DIO    C1921642   6.986   6.878   7.356
  387DIO     F621643   7.048   6.946   7.257
  387DIO    C2021644   6.644   6.910   7.545
  387DIO     O321645   6.575   6.816   7.627
  387DIO    C2121646   6.531   6.701   7.555
  387DIO    C2221647   6.442   6.741   7.438
  387DIO    C2321648   6.523   6.839   7.353
  387DIO     O421649   6.567   6.950   7.431
  387DIO    C2421650   6.309   6.807   7.482
  387DIO    C2521651   6.219   6.721   7.570
  387DIO    C2621652   6.180   6.587   7.508
  387DIO     H121653   7.901   6.875   7.422
  387DIO     H221654   7.860   6.435   7.453
  387DIO     H321655   7.683   6.553   7.640
  387DIO     H421656   7.431   6.580   7.654
  387DIO     H521657   7.432   6.816   7.286
  387DIO     H621658   6.823   6.748   7.693
  387DIO     H721659   6.811   7.008   7.340
  387DIO     H821660   6.654   7.000   7.606
  387DIO     H921661   6.618   6.644   7.520
  387DIO    H1021662   6.478   6.635   7.625
  387DIO    H1121663   6.420   6.653   7.377
  387DIO    H1221664   6.462   6.879   7.271
  387DIO    H1321665   6.609   6.789   7.307
  387DIO    H1421666   6.329   6.900   7.535
  387DIO    H1521667   6.253   6.834   7.392
  387DIO    H1621668   6.266   6.703   7.668
  387DIO    H1721669   6.127   6.777   7.591
  387DIO    H1821670   6.136   6.601   7.409
  387DIO    H1921671   6.267   6.521   7.499
  387DIO    H2021672   6.107   6.536   7.571
  388DIO     F121673   4.780   7.179   1.761
  388DIO     C121674   4.702   7.262   1.689
  388DIO     C221675   4.558   7.246   1.692
  388DIO     C321676   4.469   7.334   1.613
  388DIO     C421677   4.535   7.440   1.533
  388DIO     C521678   4.679   7.455   1.531
  388DIO     F221679   4.734   7.555   1.461
  388DIO     C621680   4.763   7.367   1.609
  388DIO     F321681   4.896   7.381   1.607
  388DIO     C721682   4.323   7.318   1.613
  388DIO     C821683   4.246   7.310   1.487
  388DIO     C921684   4.101   7.295   1.488
  388DIO    C1021685   4.028   7.297   1.614
  388DIO    C1121686   4.101   7.297   1.740
  388DIO    C1221687   4.245   7.309   1.739
  388DIO     F421688   4.310   7.314   1.857
  388DIO     O121689   3.896   7.258   1.608
  388DIO    C1321690   3.802   7.316   1.693
  388DIO     O221691   3.801   7.422   1.760
  388DIO    C1421692   3.672   7.246   1.689
  388DIO    C1521693   3.606   7.212   1.561
  388DIO     F521694   3.669   7.236   1.444
  388DIO    C1621695   3.475   7.150   1.555
  388DIO    C1721696   3.400   7.124   1.677
  388DIO    C1821697   3.468   7.141   1.804
  388DIO    C1921698   3.600   7.202   1.810
  388DIO     F621699   3.662   7.201   1.930
  388DIO    C2021700   3.259   7.069   1.672
  388DIO     O321701   3.189   7.101   1.551
  388DIO    C2121702   3.145   7.236   1.546
  388DIO    C2221703   3.057   7.269   1.666
  388DIO    C2321704   3.137   7.236   1.791
  388DIO     O421705   3.182   7.100   1.788
  388DIO    C2421706   2.924   7.190   1.666
  388DIO    C2521707   2.833   7.212   1.544
  388DIO    C2621708   2.795   7.357   1.521
  388DIO     H121709   4.515   7.167   1.753
  388DIO     H221710   4.474   7.513   1.481
  388DIO     H321711   4.297   7.310   1.392
  388DIO     H421712   4.046   7.281   1.396
  388DIO     H521713   4.046   7.293   1.833
  388DIO     H621714   3.437   7.119   1.458
  388DIO     H721715   3.425   7.103   1.896
  388DIO     H821716   3.269   6.960   1.671
  388DIO     H921717   3.232   7.303   1.543
  388DIO    H1021718   3.093   7.251   1.451
  388DIO    H1121719   3.034   7.376   1.666
  388DIO    H1221720   3.076   7.249   1.881
  388DIO    H1321721   3.223   7.303   1.801
  388DIO    H1421722   2.944   7.083   1.675
  388DIO    H1521723   2.867   7.218   1.756
  388DIO    H1621724   2.880   7.171   1.454
  388DIO    H1721725   2.741   7.153   1.559
  388DIO    H1821726   2.751   7.401   1.611
  388DIO    H1921727   2.881   7.417   1.491
  388DIO    H2021728   2.721   7.363   1.440
  389DIO     F121729   6.457   2.461   2.265
  389DIO     C121730   6.380   2.541   2.190
  389DIO     C221731   6.236   2.524   2.194
  389DIO     C321732   6.147   2.609   2.111
  389DIO     C421733   6.212   2.712   2.027
  389DIO     C521734   6.357   2.727   2.026
  389DIO     F221735   6.412   2.825   1.951
  389DIO     C621736   6.440   2.642   2.107
  389DIO     F321737   6.574   2.656   2.104
  389DIO     C721738   6.000   2.593   2.113
  389DIO     C821739   5.923   2.581   1.987
  389DIO     C921740   5.779   2.566   1.988
  389DIO    C1021741   5.706   2.573   2.114
  389DIO    C1121742   5.778   2.577   2.240
  389DIO    C1221743   5.923   2.590   2.238
  389DIO     F421744   5.987   2.599   2.356
  389DIO     O121745   5.574   2.534   2.110
  389DIO    C1321746   5.479   2.594   2.192
  389DIO     O221747   5.478   2.703   2.256
  389DIO    C1421748   5.350   2.525   2.191
  389DIO    C1521749   5.284   2.486   2.065
  389DIO     F521750   5.346   2.505   1.947
  389DIO    C1621751   5.153   2.423   2.061
  389DIO    C1721752   5.077   2.402   2.184
  389DIO    C1821753   5.146   2.424   2.310
  389DIO    C1921754   5.278   2.485   2.314
  389DIO     F621755   5.340   2.489   2.434
  389DIO    C2021756   4.937   2.347   2.181
  389DIO     O321757   4.867   2.374   2.058
  389DIO    C2121758   4.823   2.509   2.049
  389DIO    C2221759   4.734   2.547   2.167
  389DIO    C2321760   4.815   2.518   2.293
  389DIO     O421761   4.859   2.383   2.296
  389DIO    C2421762   4.601   2.468   2.170
  389DIO    C2521763   4.511   2.485   2.048
  389DIO    C2621764   4.472   2.629   2.019
  389DIO     H121765   6.193   2.448   2.258
  389DIO     H221766   6.152   2.784   1.973
  389DIO     H321767   5.975   2.577   1.892
  389DIO     H421768   5.723   2.548   1.897
  389DIO     H521769   5.724   2.577   2.333
  389DIO     H621770   5.115   2.389   1.965
  389DIO     H721771   5.103   2.390   2.404
  389DIO     H821772   4.946   2.238   2.185
  389DIO     H921773   4.910   2.576   2.043
  389DIO    H1021774   4.770   2.521   1.954
  389DIO    H1121775   4.712   2.654   2.163
  389DIO    H1221776   4.754   2.535   2.383
  389DIO    H1321777   4.901   2.586   2.301
  389DIO    H1421778   4.621   2.361   2.183
  389DIO    H1521779   4.545   2.499   2.259
  389DIO    H1621780   4.558   2.441   1.959
  389DIO    H1721781   4.419   2.427   2.065
  389DIO    H1821782   4.428   2.676   2.107
  389DIO    H1921783   4.559   2.688   1.987
  389DIO    H2021784   4.399   2.632   1.938
  390DIO     F121785   6.044   3.801   9.453
  390DIO     C121786   5.967   3.909   9.475
  390DIO     C221787   5.823   3.896   9.464
  390DIO     C321788   5.734   4.013   9.485
  390DIO     C421789   5.799   4.141   9.521
  390DIO     C521790   5.944   4.150   9.532
  390DIO     F221791   5.999   4.268   9.568
  390DIO     C621792   6.027   4.035   9.510
  390DIO     F321793   6.161   4.046   9.519
  390DIO     C721794   5.588   4.002   9.473
  390DIO     C821795   5.510   4.097   9.390
  390DIO     C921796   5.366   4.087   9.379
  390DIO    C1021797   5.293   3.989   9.457
  390DIO    C1121798   5.366   3.889   9.534
  390DIO    C1221799   5.510   3.898   9.543
  390DIO     F421800   5.575   3.807   9.619
  390DIO     O121801   5.161   3.970   9.423
  390DIO    C1321802   5.066   3.938   9.520
  390DIO     O221803   5.066   3.949   9.646
  390DIO    C1421804   4.937   3.899   9.463
  390DIO    C1521805   4.871   3.979   9.358
  390DIO     F521806   4.934   4.087   9.305
  390DIO    C1621807   4.740   3.946   9.304
  390DIO    C1721808   4.664   3.834   9.358
  390DIO    C1821809   4.733   3.743   9.449
  390DIO    C1921810   4.865   3.776   9.502
  390DIO     F621811   4.927   3.680   9.574
  390DIO    C2021812   4.524   3.805   9.312
  390DIO     O321813   4.454   3.920   9.263
  390DIO    C2121814   4.410   4.006   9.368
  390DIO    C2221815   4.321   3.931   9.467
  390DIO    C2321816   4.402   3.811   9.517
  390DIO     O421817   4.446   3.731   9.408
  390DIO    C2421818   4.189   3.883   9.404
  390DIO    C2521819   4.098   3.992   9.347
  390DIO    C2621820   4.060   4.099   9.448
  390DIO     H121821   5.780   3.800   9.439
  390DIO     H221822   5.739   4.227   9.547
  390DIO     H321823   5.562   4.173   9.333
  390DIO     H421824   5.311   4.152   9.311
  390DIO     H521825   5.311   3.813   9.587
  390DIO     H621826   4.702   4.004   9.221
  390DIO     H721827   4.690   3.647   9.475
  390DIO     H821828   4.533   3.738   9.225
  390DIO     H921829   4.497   4.049   9.419
  390DIO    H1021830   4.358   4.090   9.322
  390DIO    H1121831   4.299   3.996   9.552
  390DIO    H1221832   4.341   3.748   9.582
  390DIO    H1321833   4.488   3.844   9.576
  390DIO    H1421834   4.209   3.810   9.324
  390DIO    H1521835   4.132   3.829   9.481
  390DIO    H1621836   4.145   4.039   9.260
  390DIO    H1721837   4.006   3.945   9.310
  390DIO    H1821838   4.016   4.055   9.538
  390DIO    H1921839   4.146   4.160   9.477
  390DIO    H2021840   3.986   4.167   9.404
  391DIO     F121841   4.139   3.192   8.238
  391DIO     C121842   4.061   3.168   8.346
  391DIO     C221843   3.917   3.180   8.333
  391DIO     C321844   3.828   3.157   8.450
  391DIO     C421845   3.894   3.120   8.577
  391DIO     C521846   4.038   3.110   8.587
  391DIO     F221847   4.093   3.072   8.704
  391DIO     C621848   4.122   3.133   8.472
  391DIO     F321849   4.255   3.124   8.483
  391DIO     C721850   3.682   3.170   8.439
  391DIO     C821851   3.605   3.252   8.535
  391DIO     C921852   3.460   3.263   8.526
  391DIO    C1021853   3.387   3.186   8.427
  391DIO    C1121854   3.460   3.110   8.326
  391DIO    C1221855   3.604   3.101   8.334
  391DIO     F421856   3.669   3.026   8.243
  391DIO     O121857   3.255   3.220   8.408
  391DIO    C1321858   3.161   3.123   8.375
  391DIO     O221859   3.160   2.998   8.385
  391DIO    C1421860   3.031   3.181   8.336
  391DIO    C1521861   2.965   3.285   8.418
  391DIO     F521862   3.028   3.337   8.526
  391DIO    C1621863   2.834   3.339   8.385
  391DIO    C1721864   2.759   3.286   8.272
  391DIO    C1821865   2.827   3.196   8.181
  391DIO    C1921866   2.959   3.144   8.213
  391DIO     F621867   3.021   3.072   8.116
  391DIO    C2021868   2.618   3.333   8.244
  391DIO     O321869   2.548   3.381   8.359
  391DIO    C2121870   2.504   3.275   8.444
  391DIO    C2221871   2.416   3.177   8.369
  391DIO    C2321872   2.496   3.128   8.248
  391DIO     O421873   2.541   3.238   8.169
  391DIO    C2421874   2.283   3.240   8.321
  391DIO    C2521875   2.192   3.296   8.431
  391DIO    C2621876   2.154   3.194   8.537
  391DIO     H121877   3.874   3.206   8.237
  391DIO     H221878   3.833   3.093   8.663
  391DIO     H321879   3.656   3.309   8.612
  391DIO     H421880   3.405   3.330   8.591
  391DIO     H521881   3.405   3.057   8.249
  391DIO     H621882   2.796   3.422   8.444
  391DIO     H721883   2.784   3.171   8.084
  391DIO     H821884   2.628   3.420   8.178
  391DIO     H921885   2.591   3.224   8.487
  391DIO    H1021886   2.452   3.320   8.529
  391DIO    H1121887   2.393   3.091   8.433
  391DIO    H1221888   2.435   3.064   8.184
  391DIO    H1321889   2.582   3.069   8.281
  391DIO    H1421890   2.303   3.321   8.249
  391DIO    H1521891   2.226   3.164   8.266
  391DIO    H1621892   2.239   3.383   8.479
  391DIO    H1721893   2.100   3.334   8.384
  391DIO    H1821894   2.110   3.105   8.492
  391DIO    H1921895   2.240   3.164   8.597
  391DIO    H2021896   2.080   3.237   8.605
  392DIO     F121897   4.815   9.874   1.793
  392DIO     C121898   4.737   9.791   1.721
  392DIO     C221899   4.593   9.796   1.737
  392DIO     C321900   4.504   9.705   1.661
  392DIO     C421901   4.570   9.610   1.568
  392DIO     C521902   4.714   9.607   1.553
  392DIO     F221903   4.769   9.523   1.464
  392DIO     C621904   4.798   9.697   1.629
  392DIO     F321905   4.932   9.692   1.616
  392DIO     C721906   4.358   9.708   1.677
  392DIO     C821907   4.281   9.584   1.703
  392DIO     C921908   4.136   9.587   1.718
  392DIO    C1021909   4.063   9.711   1.697
  392DIO    C1121910   4.136   9.836   1.679
  392DIO    C1221911   4.280   9.833   1.667
  392DIO     F421912   4.345   9.949   1.645
  392DIO     O121913   3.931   9.712   1.737
  392DIO    C1321914   3.837   9.787   1.667
  392DIO     O221915   3.836   9.838   1.552
  392DIO    C1421916   3.708   9.793   1.737
  392DIO    C1521917   3.641   9.672   1.789
  392DIO     F521918   3.704   9.552   1.782
  392DIO    C1621919   3.511   9.674   1.852
  392DIO    C1721920   3.435   9.799   1.859
  392DIO    C1821921   3.504   9.923   1.824
  392DIO    C1921922   3.635   9.919   1.763
  392DIO     F621923   3.698  10.038   1.746
  392DIO    C2021924   3.294   9.802   1.914
  392DIO     O321925   3.224   9.677   1.900
  392DIO    C2121926   3.181   9.653   1.767
  392DIO    C2221927   3.092   9.767   1.717
  392DIO    C2321928   3.173   9.896   1.732
  392DIO     O421929   3.217   9.912   1.866
  392DIO    C2421930   2.959   9.778   1.795
  392DIO    C2521931   2.868   9.655   1.792
  392DIO    C2621932   2.830   9.611   1.652
  392DIO     H121933   4.550   9.868   1.805
  392DIO     H221934   4.509   9.548   1.503
  392DIO     H321935   4.332   9.490   1.716
  392DIO     H421936   4.081   9.498   1.745
  392DIO     H521937   4.082   9.929   1.670
  392DIO     H621938   3.472   9.583   1.896
  392DIO     H721939   3.461  10.019   1.848
  392DIO     H821940   3.304   9.817   2.022
  392DIO     H921941   3.267   9.641   1.701
  392DIO    H1021942   3.128   9.557   1.766
  392DIO    H1121943   3.069   9.751   1.611
  392DIO    H1221944   3.111   9.983   1.706
  392DIO    H1321945   3.259   9.896   1.664
  392DIO    H1421946   2.979   9.803   1.901
  392DIO    H1521947   2.903   9.863   1.755
  392DIO    H1621948   2.916   9.572   1.845
  392DIO    H1721949   2.777   9.678   1.848
  392DIO    H1821950   2.786   9.693   1.595
  392DIO    H1921951   2.916   9.573   1.597
  392DIO    H2021952   2.756   9.530   1.657
  393DIO     F121953   3.408   7.835   7.597
  393DIO     C121954   3.331   7.748   7.529
  393DIO     C221955   3.187   7.754   7.545
  393DIO     C321956   3.098   7.660   7.474
  393DIO     C421957   3.163   7.561   7.385
  393DIO     C521958   3.308   7.557   7.371
  393DIO     F221959   3.363   7.468   7.286
  393DIO     C621960   3.391   7.650   7.442
  393DIO     F321961   3.525   7.645   7.429
  393DIO     C721962   2.952   7.664   7.489
  393DIO     C821963   2.874   7.541   7.521
  393DIO     C921964   2.730   7.545   7.536
  393DIO    C1021965   2.657   7.668   7.510
  393DIO    C1121966   2.730   7.791   7.486
  393DIO    C1221967   2.874   7.788   7.474
  393DIO     F421968   2.939   7.903   7.446
  393DIO     O121969   2.525   7.670   7.549
  393DIO    C1321970   2.430   7.742   7.476
  393DIO     O221971   2.430   7.788   7.359
  393DIO    C1421972   2.301   7.751   7.545
  393DIO    C1521973   2.235   7.632   7.603
  393DIO     F521974   2.298   7.513   7.602
  393DIO    C1621975   2.104   7.638   7.666
  393DIO    C1721976   2.028   7.763   7.667
  393DIO    C1821977   2.097   7.885   7.626
  393DIO    C1921978   2.229   7.879   7.565
  393DIO     F621979   2.291   7.997   7.543
  393DIO    C2021980   1.888   7.768   7.722
  393DIO     O321981   1.818   7.643   7.714
  393DIO    C2121982   1.774   7.613   7.582
  393DIO    C2221983   1.685   7.724   7.527
  393DIO    C2321984   1.766   7.853   7.536
  393DIO     O421985   1.810   7.877   7.669
  393DIO    C2421986   1.553   7.739   7.604
  393DIO    C2521987   1.462   7.616   7.607
  393DIO    C2621988   1.424   7.565   7.469
  393DIO     H121989   3.144   7.830   7.610
  393DIO     H221990   3.103   7.496   7.323
  393DIO     H321991   2.926   7.448   7.539
  393DIO     H421992   2.675   7.457   7.567
  393DIO     H521993   2.675   7.884   7.472
  393DIO     H621994   2.066   7.549   7.714
  393DIO     H721995   2.054   7.982   7.646
  393DIO     H821996   1.897   7.789   7.829
  393DIO     H921997   1.861   7.597   7.517
  393DIO    H1021998   1.722   7.517   7.586
  393DIO    H1121999   1.663   7.704   7.422
  393DIO    H1222000   1.705   7.939   7.506
  393DIO    H1322001   1.852   7.850   7.468
  393DIO    H1422002   1.573   7.769   7.708
  393DIO    H1522003   1.496   7.822   7.560
  393DIO    H1622004   1.509   7.535   7.664
  393DIO    H1722005   1.370   7.642   7.661
  393DIO    H1822006   1.380   7.645   7.408
  393DIO    H1922007   1.510   7.524   7.416
  393DIO    H2022008   1.350   7.485   7.478
  394DIO     F122009   1.185   8.559   8.620
  394DIO     C122010   1.108   8.513   8.719
  394DIO     C222011   0.964   8.527   8.710
  394DIO     C322012   0.875   8.479   8.818
  394DIO     C422013   0.940   8.415   8.935
  394DIO     C522014   1.085   8.402   8.942
  394DIO     F222015   1.140   8.339   9.047
  394DIO     C622016   1.168   8.450   8.835
  394DIO     F322017   1.302   8.439   8.843
  394DIO     C722018   0.729   8.493   8.811
  394DIO     C822019   0.651   8.552   8.923
  394DIO     C922020   0.507   8.566   8.916
  394DIO    C1022021   0.434   8.512   8.802
  394DIO    C1122022   0.507   8.461   8.687
  394DIO    C1222023   0.651   8.450   8.693
  394DIO     F422024   0.716   8.396   8.588
  394DIO     O122025   0.302   8.550   8.791
  394DIO    C1322026   0.207   8.463   8.738
  394DIO     O222027   0.207   8.338   8.720
  394DIO    C1422028   0.078   8.528   8.713
  394DIO    C1522029   0.012   8.611   8.815
  394DIO     F522030   0.075   8.637   8.932
  394DIO    C1622031  -0.119   8.671   8.795
  394DIO    C1722032  -0.195   8.644   8.674
  394DIO    C1822033  -0.126   8.576   8.564
  394DIO    C1922034   0.006   8.518   8.584
  394DIO     F622035   0.068   8.470   8.474
  394DIO    C2022036  -0.335   8.696   8.656
  394DIO     O322037  -0.405   8.717   8.779
  394DIO    C2122038  -0.449   8.595   8.839
  394DIO    C2222039  -0.538   8.516   8.743
  394DIO    C2322040  -0.457   8.495   8.615
  394DIO     O422041  -0.413   8.620   8.562
  394DIO    C2422042  -0.670   8.588   8.711
  394DIO    C2522043  -0.761   8.619   8.831
  394DIO    C2622044  -0.799   8.496   8.912
  394DIO     H122045   0.921   8.573   8.622
  394DIO     H222046   0.880   8.369   9.012
  394DIO     H322047   0.703   8.591   9.010
  394DIO     H422048   0.452   8.616   8.994
  394DIO     H522049   0.452   8.426   8.601
  394DIO     H622050  -0.157   8.738   8.871
  394DIO     H722051  -0.169   8.573   8.465
  394DIO     H822052  -0.326   8.796   8.611
  394DIO     H922053  -0.362   8.535   8.869
  394DIO    H1022054  -0.501   8.620   8.931
  394DIO    H1122055  -0.560   8.418   8.787
  394DIO    H1222056  -0.518   8.446   8.539
  394DIO    H1322057  -0.371   8.430   8.634
  394DIO    H1422058  -0.650   8.683   8.659
  394DIO    H1522059  -0.727   8.526   8.640
  394DIO    H1622060  -0.714   8.692   8.896
  394DIO    H1722061  -0.853   8.666   8.793
  394DIO    H1822062  -0.843   8.418   8.848
  394DIO    H1922063  -0.713   8.453   8.963
  394DIO    H2022064  -0.873   8.523   8.988
  395DIO     F122065  10.451   8.640   7.092
  395DIO     C122066  10.373   8.686   6.992
  395DIO     C222067  10.229   8.672   7.002
  395DIO     C322068  10.140   8.720   6.894
  395DIO     C422069  10.206   8.784   6.777
  395DIO     C522070  10.350   8.797   6.770
  395DIO     F222071  10.405   8.860   6.665
  395DIO     C622072  10.434   8.749   6.877
  395DIO     F322073  10.567   8.760   6.869
  395DIO     C722074   9.994   8.706   6.901
  395DIO     C822075   9.917   8.647   6.789
  395DIO     C922076   9.772   8.634   6.796
  395DIO    C1022077   9.699   8.687   6.910
  395DIO    C1122078   9.772   8.738   7.025
  395DIO    C1222079   9.916   8.750   7.019
  395DIO     F422080   9.981   8.803   7.124
  395DIO     O122081   9.567   8.649   6.921
  395DIO    C1322082   9.473   8.737   6.974
  395DIO     O222083   9.472   8.861   6.993
  395DIO    C1422084   9.344   8.671   6.999
  395DIO    C1522085   9.277   8.588   6.896
  395DIO     F522086   9.340   8.562   6.780
  395DIO    C1622087   9.146   8.529   6.916
  395DIO    C1722088   9.071   8.555   7.038
  395DIO    C1822089   9.139   8.623   7.148
  395DIO    C1922090   9.271   8.681   7.128
  395DIO     F622091   9.334   8.729   7.238
  395DIO    C2022092   8.930   8.503   7.056
  395DIO     O322093   8.860   8.482   6.932
  395DIO    C2122094   8.817   8.604   6.873
  395DIO    C2222095   8.728   8.683   6.968
  395DIO    C2322096   8.808   8.704   7.097
  395DIO     O422097   8.853   8.579   7.149
  395DIO    C2422098   8.595   8.611   7.001
  395DIO    C2522099   8.504   8.581   6.881
  395DIO    C2622100   8.466   8.703   6.800
  395DIO     H122101  10.186   8.626   7.090
  395DIO     H222102  10.145   8.830   6.700
  395DIO     H322103   9.968   8.609   6.702
  395DIO     H422104   9.717   8.583   6.718
  395DIO     H522105   9.717   8.773   7.111
  395DIO     H622106   9.108   8.461   6.841
  395DIO     H722107   9.097   8.626   7.247
  395DIO     H822108   8.940   8.404   7.100
  395DIO     H922109   8.903   8.664   6.843
  395DIO    H1022110   8.764   8.579   6.780
  395DIO    H1122111   8.705   8.781   6.925
  395DIO    H1222112   8.747   8.753   7.173
  395DIO    H1322113   8.895   8.769   7.078
  395DIO    H1422114   8.615   8.516   7.053
  395DIO    H1522115   8.538   8.673   7.072
  395DIO    H1622116   8.552   8.507   6.816
  395DIO    H1722117   8.412   8.533   6.919
  395DIO    H1822118   8.422   8.781   6.864
  395DIO    H1922119   8.552   8.746   6.749
  395DIO    H2022120   8.392   8.677   6.724
  396DIO     F122121  10.957   0.412   7.183
  396DIO     C122122  10.879   0.427   7.292
  396DIO     C222123  10.735   0.434   7.276
  396DIO     C322124  10.646   0.453   7.393
  396DIO     C422125  10.712   0.462   7.526
  396DIO     C522126  10.856   0.455   7.539
  396DIO     F222127  10.912   0.460   7.662
  396DIO     C622128  10.940   0.437   7.423
  396DIO     F322129  11.074   0.432   7.436
  396DIO     C722130  10.500   0.461   7.379
  396DIO     C822131  10.423   0.571   7.441
  396DIO     C922132  10.278   0.578   7.428
  396DIO    C1022133  10.206   0.472   7.362
  396DIO    C1122134  10.278   0.366   7.293
  396DIO    C1222135  10.422   0.360   7.304
  396DIO     F422136  10.487   0.258   7.245
  396DIO     O122137  10.073   0.497   7.332
  396DIO    C1322138   9.979   0.395   7.335
  396DIO     O222139   9.978   0.281   7.387
  396DIO    C1422140   9.850   0.436   7.278
  396DIO    C1522141   9.784   0.562   7.319
  396DIO     F522142   9.846   0.647   7.403
  396DIO    C1622143   9.653   0.601   7.270
  396DIO    C1722144   9.577   0.512   7.182
  396DIO    C1822145   9.646   0.396   7.127
  396DIO    C1922146   9.777   0.358   7.176
  396DIO     F622147   9.840   0.258   7.110
  396DIO    C2022148   9.436   0.546   7.139
  396DIO     O322149   9.367   0.631   7.232
  396DIO    C2122150   9.323   0.561   7.348
  396DIO    C2222151   9.234   0.443   7.310
  396DIO    C2322152   9.315   0.356   7.214
  396DIO     O422153   9.359   0.432   7.102
  396DIO    C2422154   9.101   0.486   7.244
  396DIO    C2522155   9.011   0.576   7.328
  396DIO    C2622156   8.972   0.517   7.463
  396DIO     H122157  10.693   0.425   7.177
  396DIO     H222158  10.651   0.466   7.616
  396DIO     H322159  10.474   0.650   7.493
  396DIO     H422160  10.223   0.663   7.466
  396DIO     H522161  10.224   0.290   7.240
  396DIO     H622162   9.615   0.699   7.297
  396DIO     H722163   9.603   0.340   7.046
  396DIO     H822164   9.446   0.606   7.048
  396DIO     H922165   9.410   0.528   7.405
  396DIO    H1022166   9.270   0.633   7.412
  396DIO    H1122167   9.211   0.385   7.400
  396DIO    H1222168   9.254   0.273   7.177
  396DIO    H1322169   9.401   0.311   7.265
  396DIO    H1422170   9.121   0.537   7.149
  396DIO    H1522171   9.045   0.395   7.219
  396DIO    H1622172   9.058   0.674   7.343
  396DIO    H1722173   8.919   0.596   7.271
  396DIO    H1822174   8.928   0.418   7.451
  396DIO    H1922175   9.059   0.510   7.529
  396DIO    H2022176   8.898   0.582   7.512
  397DIO     F122177   1.695   0.365   2.539
  397DIO     C122178   1.617   0.258   2.517
  397DIO     C222179   1.473   0.270   2.528
  397DIO     C322180   1.384   0.154   2.507
  397DIO     C422181   1.450   0.026   2.471
  397DIO     C522182   1.594   0.016   2.460
  397DIO     F222183   1.649  -0.101   2.423
  397DIO     C622184   1.678   0.131   2.482
  397DIO     F322185   1.812   0.120   2.473
  397DIO     C722186   1.238   0.164   2.519
  397DIO     C822187   1.161   0.069   2.602
  397DIO     C922188   1.016   0.078   2.613
  397DIO    C1022189   0.943   0.177   2.535
  397DIO    C1122190   1.016   0.277   2.459
  397DIO    C1222191   1.160   0.269   2.449
  397DIO     F422192   1.225   0.359   2.373
  397DIO     O122193   0.811   0.196   2.569
  397DIO    C1322194   0.717   0.228   2.472
  397DIO     O222195   0.716   0.217   2.347
  397DIO    C1422196   0.588   0.267   2.530
  397DIO    C1522197   0.521   0.187   2.634
  397DIO     F522198   0.584   0.079   2.687
  397DIO    C1622199   0.391   0.220   2.688
  397DIO    C1722200   0.315   0.332   2.634
  397DIO    C1822201   0.384   0.423   2.543
  397DIO    C1922202   0.515   0.391   2.491
  397DIO     F622203   0.578   0.486   2.419
  397DIO    C2022204   0.174   0.361   2.681
  397DIO     O322205   0.104   0.246   2.729
  397DIO    C2122206   0.061   0.160   2.624
  397DIO    C2222207  -0.028   0.235   2.526
  397DIO    C2322208   0.053   0.355   2.476
  397DIO     O422209   0.097   0.435   2.585
  397DIO    C2422210  -0.161   0.283   2.588
  397DIO    C2522211  -0.252   0.174   2.645
  397DIO    C2622212  -0.290   0.067   2.544
  397DIO     H122213   1.430   0.367   2.553
  397DIO     H222214   1.389  -0.060   2.444
  397DIO     H322215   1.212  -0.007   2.659
  397DIO     H422216   0.961   0.014   2.680
  397DIO     H522217   0.962   0.353   2.405
  397DIO     H622218   0.352   0.161   2.771
  397DIO     H722219   0.341   0.519   2.517
  397DIO     H822220   0.184   0.427   2.767
  397DIO     H922221   0.147   0.117   2.573
  397DIO    H1022222   0.008   0.076   2.670
  397DIO    H1122223  -0.051   0.170   2.440
  397DIO    H1222224  -0.009   0.418   2.411
  397DIO    H1322225   0.139   0.322   2.416
  397DIO    H1422226  -0.141   0.356   2.668
  397DIO    H1522227  -0.217   0.338   2.511
  397DIO    H1622228  -0.204   0.127   2.732
  397DIO    H1722229  -0.343   0.221   2.683
  397DIO    H1822230  -0.334   0.111   2.454
  397DIO    H1922231  -0.204   0.007   2.514
  397DIO    H2022232  -0.364  -0.001   2.588
  398DIO     F122233   7.059   7.098   9.409
  398DIO     C122234   6.982   7.109   9.299
  398DIO     C222235   6.837   7.099   9.313
  398DIO     C322236   6.749   7.109   9.195
  398DIO     C422237   6.814   7.132   9.064
  398DIO     C522238   6.958   7.142   9.053
  398DIO     F222239   7.014   7.167   8.933
  398DIO     C622240   7.042   7.131   9.170
  398DIO     F322241   7.176   7.139   9.159
  398DIO     C722242   6.602   7.098   9.207
  398DIO     C822243   6.525   7.006   9.120
  398DIO     C922244   6.380   6.996   9.131
  398DIO    C1022245   6.308   7.083   9.221
  398DIO    C1122246   6.380   7.169   9.313
  398DIO    C1222247   6.524   7.178   9.304
  398DIO     F422248   6.589   7.262   9.386
  398DIO     O122249   6.176   7.051   9.244
  398DIO    C1322250   6.081   7.151   9.266
  398DIO     O222251   6.080   7.275   9.242
  398DIO    C1422252   5.952   7.098   9.311
  398DIO    C1522253   5.886   6.985   9.241
  398DIO     F522254   5.948   6.923   9.139
  398DIO    C1622255   5.755   6.936   9.279
  398DIO    C1722256   5.679   7.000   9.385
  398DIO    C1822257   5.748   7.100   9.467
  398DIO    C1922258   5.880   7.149   9.429
  398DIO     F622259   5.942   7.230   9.517
  398DIO    C2022260   5.538   6.957   9.419
  398DIO     O322261   5.469   6.897   9.309
  398DIO    C2122262   5.425   6.993   9.213
  398DIO    C2222263   5.336   7.098   9.278
  398DIO    C2322264   5.417   7.160   9.392
  398DIO     O422265   5.461   7.059   9.483
  398DIO    C2422266   5.203   7.041   9.332
  398DIO    C2522267   5.113   6.973   9.229
  398DIO    C2622268   5.074   7.063   9.112
  398DIO     H122269   6.795   7.084   9.412
  398DIO     H222270   6.754   7.150   8.976
  398DIO     H322271   6.577   6.941   9.050
  398DIO     H422272   6.325   6.922   9.074
  398DIO     H522273   6.326   7.230   9.384
  398DIO     H622274   5.717   6.847   9.229
  398DIO     H722275   5.705   7.135   9.560
  398DIO     H822276   5.548   6.877   9.494
  398DIO     H922277   5.512   7.039   9.165
  398DIO    H1022278   5.372   6.939   9.134
  398DIO    H1122279   5.314   7.177   9.205
  398DIO    H1222280   5.356   7.231   9.449
  398DIO    H1322281   5.503   7.216   9.353
  398DIO    H1422282   5.223   6.969   9.412
  398DIO    H1522283   5.147   7.123   9.379
  398DIO    H1622284   5.160   6.882   9.191
  398DIO    H1722285   5.021   6.941   9.280
  398DIO    H1822286   5.030   7.157   9.147
  398DIO    H1922287   5.161   7.087   9.050
  398DIO    H2022288   5.001   7.013   9.049
  399DIO     F122289   9.352   7.504  10.774
  399DIO     C122290   9.274   7.489  10.665
  399DIO     C222291   9.130   7.483  10.680
  399DIO     C322292   9.041   7.465  10.563
  399DIO     C422293   9.107   7.456  10.431
  399DIO     C522294   9.251   7.463  10.418
  399DIO     F222295   9.306   7.460  10.295
  399DIO     C622296   9.335   7.480  10.534
  399DIO     F322297   9.468   7.485  10.521
  399DIO     C722298   8.895   7.457  10.577
  399DIO     C822299   8.818   7.347  10.514
  399DIO     C922300   8.673   7.339  10.527
  399DIO    C1022301   8.600   7.445  10.595
  399DIO    C1122302   8.673   7.551  10.664
  399DIO    C1222303   8.817   7.557  10.653
  399DIO     F422304   8.882   7.658  10.714
  399DIO     O122305   8.468   7.420  10.624
  399DIO    C1322306   8.374   7.522  10.623
  399DIO     O222307   8.373   7.637  10.571
  399DIO    C1422308   8.245   7.480  10.678
  399DIO    C1522309   8.178   7.355  10.636
  399DIO     F522310   8.241   7.270  10.552
  399DIO    C1622311   8.047   7.315  10.685
  399DIO    C1722312   7.972   7.403  10.774
  399DIO    C1822313   8.040   7.519  10.830
  399DIO    C1922314   8.172   7.558  10.782
  399DIO     F622315   8.235   7.657  10.848
  399DIO    C2022316   7.831   7.369  10.817
  399DIO     O322317   7.761   7.285  10.724
  399DIO    C2122318   7.718   7.356  10.608
  399DIO    C2222319   7.629   7.474  10.646
  399DIO    C2322320   7.709   7.560  10.743
  399DIO     O422321   7.754   7.483  10.855
  399DIO    C2422322   7.496   7.430  10.712
  399DIO    C2522323   7.405   7.340  10.628
  399DIO    C2622324   7.367   7.401  10.494
  399DIO     H122325   9.087   7.491  10.780
  399DIO     H222326   9.046   7.453  10.341
  399DIO     H322327   8.869   7.268  10.462
  399DIO     H422328   8.618   7.255  10.489
  399DIO     H522329   8.618   7.626  10.718
  399DIO     H622330   8.009   7.218  10.658
  399DIO     H722331   7.998   7.575  10.912
  399DIO     H822332   7.841   7.309  10.908
  399DIO     H922333   7.804   7.390  10.551
  399DIO    H1022334   7.665   7.285  10.544
  399DIO    H1122335   7.606   7.533  10.557
  399DIO    H1222336   7.648   7.642  10.781
  399DIO    H1322337   7.796   7.605  10.692
  399DIO    H1422338   7.516   7.379  10.807
  399DIO    H1522339   7.439   7.521  10.739
  399DIO    H1622340   7.453   7.243  10.612
  399DIO    H1722341   7.313   7.321  10.685
  399DIO    H1822342   7.323   7.500  10.506
  399DIO    H1922343   7.453   7.409  10.427
  399DIO    H2022344   7.293   7.337  10.444
  400DIO     F122345   8.673   3.084   6.846
  400DIO     C122346   8.596   2.980   6.812
  400DIO     C222347   8.451   2.991   6.825
  400DIO     C322348   8.363   2.878   6.790
  400DIO     C422349   8.428   2.755   6.740
  400DIO     C522350   8.572   2.746   6.728
  400DIO     F222351   8.628   2.634   6.678
  400DIO     C622352   8.656   2.858   6.763
  400DIO     F322353   8.790   2.849   6.753
  400DIO     C722354   8.216   2.887   6.803
  400DIO     C822355   8.139   2.783   6.875
  400DIO     C922356   7.994   2.791   6.887
  400DIO    C1022357   7.922   2.898   6.821
  400DIO    C1122358   7.994   3.006   6.756
  400DIO    C1222359   8.138   2.999   6.746
  400DIO     F422360   8.203   3.097   6.681
  400DIO     O122361   7.790   2.913   6.857
  400DIO    C1322362   7.695   2.956   6.764
  400DIO     O222363   7.694   2.959   6.638
  400DIO    C1422364   7.566   2.988   6.826
  400DIO    C1522365   7.500   2.896   6.921
  400DIO     F522366   7.562   2.783   6.960
  400DIO    C1622367   7.369   2.923   6.978
  400DIO    C1722368   7.293   3.041   6.937
  400DIO    C1822369   7.362   3.142   6.857
  400DIO    C1922370   7.494   3.115   6.801
  400DIO     F622371   7.556   3.218   6.741
  400DIO    C2022372   7.152   3.065   6.986
  400DIO     O322373   7.083   2.944   7.021
  400DIO    C2122374   7.039   2.871   6.908
  400DIO    C2222375   6.950   2.957   6.818
  400DIO    C2322376   7.031   3.081   6.782
  400DIO     O422377   7.075   3.148   6.900
  400DIO    C2422378   6.817   2.997   6.886
  400DIO    C2522379   6.727   2.882   6.930
  400DIO    C2622380   6.688   2.787   6.818
  400DIO     H122381   8.409   3.084   6.860
  400DIO     H222382   8.368   2.672   6.704
  400DIO     H322383   8.191   2.701   6.923
  400DIO     H422384   7.939   2.720   6.947
  400DIO     H522385   7.940   3.088   6.712
  400DIO     H622386   7.331   2.856   7.053
  400DIO     H722387   7.319   3.240   6.842
  400DIO     H822388   7.162   3.121   7.080
  400DIO     H922389   7.126   2.834   6.852
  400DIO    H1022390   6.986   2.782   6.944
  400DIO    H1122391   6.928   2.902   6.726
  400DIO    H1222392   6.970   3.152   6.725
  400DIO    H1322393   7.117   3.055   6.719
  400DIO    H1422394   6.837   3.060   6.973
  400DIO    H1522395   6.761   3.060   6.816
  400DIO    H1622396   6.774   2.826   7.011
  400DIO    H1722397   6.635   2.925   6.972
  400DIO    H1822398   6.644   2.842   6.733
  400DIO    H1922399   6.775   2.731   6.781
  400DIO    H2022400   6.615   2.715   6.853
  401DIO     F122401   2.981   7.451   2.161
  401DIO     C122402   2.903   7.499   2.063
  401DIO     C222403   2.759   7.485   2.072
  401DIO     C322404   2.671   7.535   1.964
  401DIO     C422405   2.736   7.602   1.849
  401DIO     C522406   2.880   7.614   1.842
  401DIO     F222407   2.936   7.679   1.738
  401DIO     C622408   2.964   7.564   1.949
  401DIO     F322409   3.098   7.576   1.941
  401DIO     C722410   2.524   7.521   1.971
  401DIO     C822411   2.447   7.464   1.859
  401DIO     C922412   2.302   7.450   1.865
  401DIO    C1022413   2.230   7.502   1.980
  401DIO    C1122414   2.302   7.551   2.096
  401DIO    C1222415   2.446   7.562   2.090
  401DIO     F422416   2.511   7.613   2.197
  401DIO     O122417   2.098   7.464   1.990
  401DIO    C1322418   2.003   7.550   2.045
  401DIO     O222419   2.002   7.674   2.066
  401DIO    C1422420   1.874   7.484   2.069
  401DIO    C1522421   1.808   7.403   1.965
  401DIO     F522422   1.870   7.379   1.847
  401DIO    C1622423   1.677   7.343   1.983
  401DIO    C1722424   1.601   7.367   2.106
  401DIO    C1822425   1.670   7.433   2.216
  401DIO    C1922426   1.801   7.491   2.198
  401DIO     F622427   1.864   7.537   2.308
  401DIO    C2022428   1.460   7.315   2.122
  401DIO     O322429   1.391   7.297   1.999
  401DIO    C2122430   1.347   7.419   1.941
  401DIO    C2222431   1.258   7.496   2.038
  401DIO    C2322432   1.339   7.515   2.167
  401DIO     O422433   1.383   7.389   2.217
  401DIO    C2422434   1.125   7.424   2.070
  401DIO    C2522435   1.035   7.396   1.949
  401DIO    C2622436   0.996   7.520   1.871
  401DIO     H122437   2.717   7.437   2.159
  401DIO     H222438   2.675   7.649   1.773
  401DIO     H322439   2.499   7.427   1.771
  401DIO     H422440   2.247   7.401   1.786
  401DIO     H522441   2.248   7.584   2.183
  401DIO     H622442   1.639   7.277   1.906
  401DIO     H722443   1.627   7.434   2.316
  401DIO     H822444   1.470   7.215   2.165
  401DIO     H922445   1.434   7.480   1.912
  401DIO    H1022446   1.294   7.396   1.848
  401DIO    H1122447   1.236   7.595   1.997
  401DIO    H1222448   1.278   7.562   2.244
  401DIO    H1322449   1.425   7.581   2.150
  401DIO    H1422450   1.145   7.328   2.120
  401DIO    H1522451   1.069   7.485   2.141
  401DIO    H1622452   1.082   7.323   1.882
  401DIO    H1722453   0.943   7.348   1.986
  401DIO    H1822454   0.952   7.596   1.936
  401DIO    H1922455   1.083   7.564   1.820
  401DIO    H2022456   0.923   7.495   1.794
  402DIO     F122457   6.333   3.882   5.955
  402DIO     C122458   6.256   3.814   6.042
  402DIO     C222459   6.111   3.829   6.035
  402DIO     C322460   6.023   3.758   6.130
  402DIO     C422461   6.088   3.669   6.228
  402DIO     C522462   6.232   3.655   6.233
  402DIO     F222463   6.288   3.569   6.321
  402DIO     C622464   6.316   3.726   6.139
  402DIO     F322465   6.450   3.713   6.145
  402DIO     C722466   5.876   3.774   6.126
  402DIO     C822467   5.799   3.805   6.248
  402DIO     C922468   5.654   3.820   6.245
  402DIO    C1022469   5.582   3.794   6.122
  402DIO    C1122470   5.654   3.770   5.998
  402DIO    C1222471   5.798   3.758   6.002
  402DIO     F422472   5.863   3.731   5.887
  402DIO     O122473   5.450   3.833   6.120
  402DIO    C1322474   5.355   3.760   6.048
  402DIO     O222475   5.354   3.643   6.001
  402DIO    C1422476   5.226   3.830   6.038
  402DIO    C1522477   5.160   3.887   6.158
  402DIO     F522478   5.222   3.886   6.277
  402DIO    C1622479   5.029   3.950   6.152
  402DIO    C1722480   4.953   3.952   6.027
  402DIO    C1822481   5.022   3.911   5.905
  402DIO    C1922482   5.154   3.850   5.911
  402DIO     F622483   5.216   3.828   5.793
  402DIO    C2022484   4.812   4.006   6.022
  402DIO     O322485   4.743   3.998   6.147
  402DIO    C2122486   4.699   3.866   6.177
  402DIO    C2222487   4.610   3.811   6.066
  402DIO    C2322488   4.691   3.820   5.936
  402DIO     O422489   4.735   3.954   5.913
  402DIO    C2422490   4.477   3.889   6.051
  402DIO    C2522491   4.387   3.891   6.174
  402DIO    C2622492   4.348   3.753   6.225
  402DIO     H122493   6.069   3.895   5.960
  402DIO     H222494   6.028   3.607   6.294
  402DIO     H322495   5.851   3.823   6.342
  402DIO     H422496   5.599   3.851   6.332
  402DIO     H522497   5.600   3.756   5.906
  402DIO     H622498   4.991   3.998   6.241
  402DIO     H722499   4.979   3.931   5.808
  402DIO     H822500   4.822   4.114   6.001
  402DIO     H922501   4.786   3.801   6.192
  402DIO    H1022502   4.646   3.869   6.273
  402DIO    H1122503   4.588   3.706   6.086
  402DIO    H1222504   4.630   3.790   5.851
  402DIO    H1322505   4.777   3.752   5.939
  402DIO    H1422506   4.497   3.993   6.022
  402DIO    H1522507   4.421   3.844   5.968
  402DIO    H1622508   4.434   3.948   6.255
  402DIO    H1722509   4.295   3.945   6.148
  402DIO    H1822510   4.304   3.692   6.145
  402DIO    H1922511   4.435   3.699   6.265
  402DIO    H2022512   4.275   3.762   6.305
  403DIO     F122513   6.021   9.535   4.646
  403DIO     C122514   5.943   9.448   4.579
  403DIO     C222515   5.799   9.454   4.595
  403DIO     C322516   5.710   9.359   4.525
  403DIO     C422517   5.776   9.259   4.437
  403DIO     C522518   5.920   9.255   4.423
  403DIO     F222519   5.976   9.166   4.339
  403DIO     C622520   6.004   9.349   4.493
  403DIO     F322521   6.138   9.344   4.480
  403DIO     C722522   5.564   9.363   4.540
  403DIO     C822523   5.487   9.241   4.573
  403DIO     C922524   5.342   9.245   4.588
  403DIO    C1022525   5.270   9.367   4.561
  403DIO    C1122526   5.342   9.491   4.535
  403DIO    C1222527   5.486   9.487   4.523
  403DIO     F422528   5.551   9.602   4.495
  403DIO     O122529   5.137   9.370   4.600
  403DIO    C1322530   5.043   9.441   4.526
  403DIO     O222531   5.042   9.486   4.409
  403DIO    C1422532   4.914   9.451   4.595
  403DIO    C1522533   4.847   9.333   4.654
  403DIO     F522534   4.910   9.213   4.654
  403DIO    C1622535   4.717   9.339   4.717
  403DIO    C1722536   4.641   9.464   4.717
  403DIO    C1822537   4.710   9.586   4.675
  403DIO    C1922538   4.841   9.579   4.614
  403DIO     F622539   4.904   9.696   4.591
  403DIO    C2022540   4.500   9.470   4.772
  403DIO     O322541   4.430   9.345   4.765
  403DIO    C2122542   4.387   9.313   4.634
  403DIO    C2222543   4.298   9.424   4.577
  403DIO    C2322544   4.379   9.553   4.585
  403DIO     O422545   4.423   9.578   4.718
  403DIO    C2422546   4.165   9.440   4.655
  403DIO    C2522547   4.074   9.316   4.658
  403DIO    C2622548   4.036   9.264   4.521
  403DIO     H122549   5.757   9.530   4.659
  403DIO     H222550   5.715   9.193   4.375
  403DIO     H322551   5.538   9.148   4.592
  403DIO     H422552   5.287   9.158   4.620
  403DIO     H522553   5.288   9.583   4.520
  403DIO     H622554   4.679   9.251   4.766
  403DIO     H722555   4.667   9.683   4.694
  403DIO     H822556   4.510   9.492   4.879
  403DIO     H922557   4.473   9.297   4.569
  403DIO    H1022558   4.334   9.218   4.638
  403DIO    H1122559   4.275   9.402   4.472
  403DIO    H1222560   4.318   9.639   4.554
  403DIO    H1322561   4.465   9.550   4.517
  403DIO    H1422562   4.185   9.470   4.758
  403DIO    H1522563   4.109   9.522   4.609
  403DIO    H1622564   4.122   9.236   4.716
  403DIO    H1722565   3.983   9.343   4.712
  403DIO    H1822566   3.992   9.343   4.459
  403DIO    H1922567   4.123   9.223   4.468
  403DIO    H2022568   3.962   9.184   4.531
  404DIO     F122569   4.782   0.463   3.977
  404DIO     C122570   4.704   0.455   3.867
  404DIO     C222571   4.560   0.448   3.883
  404DIO     C322572   4.471   0.437   3.765
  404DIO     C422573   4.537   0.437   3.632
  404DIO     C522574   4.681   0.444   3.619
  404DIO     F222575   4.737   0.448   3.497
  404DIO     C622576   4.765   0.454   3.736
  404DIO     F322577   4.899   0.460   3.724
  404DIO     C722578   4.325   0.428   3.778
  404DIO     C822579   4.248   0.322   3.709
  404DIO     C922580   4.103   0.314   3.721
  404DIO    C1022581   4.031   0.416   3.795
  404DIO    C1122582   4.103   0.516   3.870
  404DIO    C1222583   4.247   0.523   3.860
  404DIO     F422584   4.312   0.621   3.926
  404DIO     O122585   3.898   0.388   3.823
  404DIO    C1322586   3.804   0.490   3.827
  404DIO     O222587   3.803   0.608   3.783
  404DIO    C1422588   3.675   0.446   3.881
  404DIO    C1522589   3.609   0.323   3.831
  404DIO     F522590   3.671   0.243   3.742
  404DIO    C1622591   3.478   0.280   3.878
  404DIO    C1722592   3.402   0.363   3.971
  404DIO    C1822593   3.471   0.475   4.034
  404DIO    C1922594   3.602   0.516   3.988
  404DIO     F622595   3.665   0.612   4.061
  404DIO    C2022596   3.261   0.326   4.012
  404DIO     O322597   3.192   0.248   3.914
  404DIO    C2122598   3.148   0.325   3.803
  404DIO    C2222599   3.059   0.441   3.848
  404DIO    C2322600   3.140   0.521   3.950
  404DIO     O422601   3.184   0.438   4.057
  404DIO    C2422602   2.926   0.394   3.911
  404DIO    C2522603   2.836   0.309   3.822
  404DIO    C2622604   2.797   0.377   3.691
  404DIO     H122605   4.518   0.450   3.982
  404DIO     H222606   4.476   0.439   3.542
  404DIO     H322607   4.299   0.246   3.651
  404DIO     H422608   4.048   0.232   3.678
  404DIO     H522609   4.049   0.589   3.929
  404DIO     H622610   3.440   0.185   3.844
  404DIO     H722611   3.428   0.526   4.119
  404DIO     H822612   3.271   0.260   4.099
  404DIO     H922613   3.235   0.363   3.747
  404DIO    H1022614   3.095   0.259   3.734
  404DIO    H1122615   3.036   0.505   3.762
  404DIO    H1222616   3.079   0.601   3.993
  404DIO    H1322617   3.226   0.569   3.902
  404DIO    H1422618   2.946   0.336   4.003
  404DIO    H1522619   2.870   0.482   3.943
  404DIO    H1622620   2.883   0.212   3.800
  404DIO    H1722621   2.744   0.286   3.877
  404DIO    H1822622   2.753   0.476   3.710
  404DIO    H1922623   2.884   0.389   3.625
  404DIO    H2022624   2.723   0.316   3.638
  405DIO     F122625   7.990   8.996   9.553
  405DIO     C122626   7.912   8.985   9.443
  405DIO     C222627   7.768   8.978   9.459
  405DIO     C322628   7.679   8.963   9.341
  405DIO     C422629   7.745   8.958   9.208
  405DIO     C522630   7.889   8.965   9.196
  405DIO     F222631   7.945   8.965   9.073
  405DIO     C622632   7.973   8.979   9.313
  405DIO     F322633   8.107   8.985   9.299
  405DIO     C722634   7.533   8.954   9.355
  405DIO     C822635   7.456   8.846   9.289
  405DIO     C922636   7.311   8.838   9.302
  405DIO    C1022637   7.239   8.943   9.372
  405DIO    C1122638   7.311   9.046   9.444
  405DIO    C1222639   7.455   9.052   9.433
  405DIO     F422640   7.520   9.152   9.496
  405DIO     O122641   7.106   8.916   9.401
  405DIO    C1322642   7.012   9.018   9.402
  405DIO     O222643   7.011   9.135   9.353
  405DIO    C1422644   6.883   8.975   9.457
  405DIO    C1522645   6.816   8.851   9.412
  405DIO     F522646   6.879   8.769   9.325
  405DIO    C1622647   6.686   8.810   9.460
  405DIO    C1722648   6.610   8.896   9.550
  405DIO    C1822649   6.679   9.010   9.609
  405DIO    C1922650   6.810   9.050   9.562
  405DIO     F622651   6.873   9.148   9.631
  405DIO    C2022652   6.469   8.860   9.592
  405DIO     O322653   6.399   8.779   9.497
  405DIO    C2122654   6.356   8.853   9.383
  405DIO    C2222655   6.267   8.969   9.425
  405DIO    C2322656   6.348   9.053   9.523
  405DIO     O422657   6.392   8.974   9.633
  405DIO    C2422658   6.134   8.925   9.490
  405DIO    C2522659   6.043   8.837   9.403
  405DIO    C2622660   6.005   8.900   9.270
  405DIO     H122661   7.726   8.983   9.558
  405DIO     H222662   7.684   8.957   9.118
  405DIO     H322663   7.507   8.769   9.235
  405DIO     H422664   7.256   8.755   9.261
  405DIO     H522665   7.257   9.120   9.501
  405DIO     H622666   6.648   8.714   9.429
  405DIO     H722667   6.636   9.064   9.693
  405DIO     H822668   6.479   8.798   9.682
  405DIO     H922669   6.442   8.888   9.327
  405DIO    H1022670   6.303   8.783   9.317
  405DIO    H1122671   6.244   9.031   9.337
  405DIO    H1222672   6.287   9.135   9.564
  405DIO    H1322673   6.434   9.100   9.474
  405DIO    H1422674   6.154   8.870   9.583
  405DIO    H1522675   6.078   9.014   9.518
  405DIO    H1622676   6.091   8.740   9.384
  405DIO    H1722677   5.952   8.816   9.459
  405DIO    H1822678   5.961   9.000   9.285
  405DIO    H1922679   6.092   8.910   9.204
  405DIO    H2022680   5.931   8.838   9.218
  406DIO     F122681  10.512   3.634   3.777
  406DIO     C122682  10.435   3.527   3.751
  406DIO     C222683  10.291   3.540   3.763
  406DIO     C322684  10.202   3.424   3.737
  406DIO     C422685  10.267   3.297   3.697
  406DIO     C522686  10.412   3.288   3.686
  406DIO     F222687  10.467   3.172   3.645
  406DIO     C622688  10.495   3.402   3.712
  406DIO     F322689  10.629   3.392   3.703
  406DIO     C722690  10.055   3.434   3.750
  406DIO     C822691   9.978   3.336   3.829
  406DIO     C922692   9.834   3.345   3.841
  406DIO    C1022693   9.761   3.446   3.766
  406DIO    C1122694   9.833   3.549   3.693
  406DIO    C1222695   9.978   3.541   3.684
  406DIO     F422696  10.042   3.634   3.611
  406DIO     O122697   9.629   3.465   3.801
  406DIO    C1322698   9.534   3.500   3.705
  406DIO     O222699   9.533   3.493   3.579
  406DIO    C1422700   9.405   3.537   3.764
  406DIO    C1522701   9.339   3.453   3.866
  406DIO     F522702   9.401   3.343   3.914
  406DIO    C1622703   9.208   3.484   3.920
  406DIO    C1722704   9.132   3.598   3.870
  406DIO    C1822705   9.201   3.692   3.783
  406DIO    C1922706   9.333   3.661   3.729
  406DIO     F622707   9.395   3.759   3.660
  406DIO    C2022708   8.992   3.626   3.918
  406DIO     O322709   8.922   3.509   3.962
  406DIO    C2122710   8.878   3.426   3.855
  406DIO    C2222711   8.789   3.505   3.759
  406DIO    C2322712   8.870   3.626   3.713
  406DIO     O422713   8.914   3.702   3.825
  406DIO    C2422714   8.656   3.551   3.823
  406DIO    C2522715   8.566   3.439   3.876
  406DIO    C2622716   8.527   3.336   3.772
  406DIO     H122717  10.248   3.635   3.791
  406DIO     H222718  10.207   3.212   3.668
  406DIO     H322719  10.030   3.258   3.884
  406DIO     H422720   9.778   3.279   3.906
  406DIO     H522721   9.779   3.627   3.642
  406DIO     H622722   9.170   3.423   4.001
  406DIO     H722723   9.158   3.789   3.760
  406DIO     H822724   9.001   3.689   4.007
  406DIO     H922725   8.965   3.385   3.802
  406DIO    H1022726   8.825   3.341   3.898
  406DIO    H1122727   8.767   3.442   3.671
  406DIO    H1222728   8.809   3.691   3.650
  406DIO    H1322729   8.956   3.595   3.653
  406DIO    H1422730   8.676   3.620   3.905
  406DIO    H1522731   8.600   3.608   3.748
  406DIO    H1622732   8.613   3.389   3.962
  406DIO    H1722733   8.474   3.485   3.915
  406DIO    H1822734   8.483   3.383   3.684
  406DIO    H1922735   8.614   3.277   3.740
  406DIO    H2022736   8.454   3.266   3.813
  407DIO     F122737   4.166   9.350   8.613
  407DIO     C122738   4.088   9.459   8.620
  407DIO     C222739   3.944   9.445   8.611
  407DIO     C322740   3.855   9.564   8.615
  407DIO     C422741   3.921   9.695   8.633
  407DIO     C522742   4.065   9.707   8.642
  407DIO     F222743   4.121   9.828   8.662
  407DIO     C622744   4.149   9.589   8.636
  407DIO     F322745   4.283   9.601   8.644
  407DIO     C722746   3.709   9.552   8.605
  407DIO     C822747   3.632   9.634   8.509
  407DIO     C922748   3.487   9.623   8.499
  407DIO    C1022749   3.415   9.537   8.591
  407DIO    C1122750   3.487   9.448   8.680
  407DIO    C1222751   3.631   9.458   8.689
  407DIO     F422752   3.696   9.379   8.777
  407DIO     O122753   3.282   9.513   8.560
  407DIO    C1322754   3.188   9.495   8.660
  407DIO     O222755   3.187   9.523   8.783
  407DIO    C1422756   3.059   9.448   8.609
  407DIO    C1522757   2.993   9.513   8.494
  407DIO     F522758   3.055   9.612   8.427
  407DIO    C1622759   2.862   9.472   8.445
  407DIO    C1722760   2.786   9.369   8.515
  407DIO    C1822761   2.855   9.292   8.618
  407DIO    C1922762   2.986   9.331   8.665
  407DIO     F622763   3.049   9.247   8.750
  407DIO    C2022764   2.645   9.333   8.473
  407DIO     O322765   2.576   9.441   8.408
  407DIO    C2122766   2.532   9.541   8.500
  407DIO    C2222767   2.443   9.480   8.608
  407DIO    C2322768   2.524   9.369   8.675
  407DIO     O422769   2.568   9.274   8.578
  407DIO    C2422770   2.310   9.424   8.553
  407DIO    C2522771   2.220   9.524   8.481
  407DIO    C2622772   2.181   9.644   8.566
  407DIO     H122773   3.902   9.346   8.600
  407DIO     H222774   3.860   9.784   8.647
  407DIO     H322775   3.683   9.701   8.442
  407DIO     H422776   3.432   9.677   8.424
  407DIO     H522777   3.433   9.380   8.744
  407DIO     H622778   2.824   9.518   8.355
  407DIO     H722779   2.812   9.200   8.657
  407DIO     H822780   2.655   9.255   8.396
  407DIO     H922781   2.619   9.590   8.545
  407DIO    H1022782   2.479   9.617   8.443
  407DIO    H1122783   2.420   9.557   8.683
  407DIO    H1222784   2.463   9.316   8.748
  407DIO    H1322785   2.610   9.410   8.729
  407DIO    H1422786   2.330   9.341   8.484
  407DIO    H1522787   2.254   9.381   8.637
  407DIO    H1622788   2.267   9.558   8.388
  407DIO    H1722789   2.128   9.472   8.451
  407DIO    H1822790   2.137   9.613   8.661
  407DIO    H1922791   2.268   9.708   8.587
  407DIO    H2022792   2.107   9.706   8.513
  408DIO     F122793   3.037  -0.751   3.491
  408DIO     C122794   2.959  -0.739   3.381
  408DIO     C222795   2.815  -0.749   3.395
  408DIO     C322796   2.726  -0.738   3.277
  408DIO     C422797   2.792  -0.714   3.146
  408DIO     C522798   2.936  -0.705   3.135
  408DIO     F222799   2.991  -0.679   3.015
  408DIO     C622800   3.020  -0.716   3.252
  408DIO     F322801   3.153  -0.708   3.241
  408DIO     C722802   2.580  -0.750   3.288
  408DIO     C822803   2.503  -0.841   3.201
  408DIO     C922804   2.358  -0.851   3.212
  408DIO    C1022805   2.285  -0.765   3.303
  408DIO    C1122806   2.358  -0.679   3.395
  408DIO    C1222807   2.502  -0.671   3.386
  408DIO     F422808   2.567  -0.587   3.469
  408DIO     O122809   2.153  -0.797   3.325
  408DIO    C1322810   2.059  -0.697   3.348
  408DIO     O222811   2.058  -0.573   3.326
  408DIO    C1422812   1.930  -0.751   3.392
  408DIO    C1522813   1.863  -0.863   3.321
  408DIO     F522814   1.926  -0.924   3.219
  408DIO    C1622815   1.732  -0.913   3.359
  408DIO    C1722816   1.657  -0.849   3.466
  408DIO    C1822817   1.725  -0.750   3.549
  408DIO    C1922818   1.857  -0.701   3.511
  408DIO     F622819   1.920  -0.620   3.600
  408DIO    C2022820   1.516  -0.892   3.500
  408DIO     O322821   1.446  -0.951   3.389
  408DIO    C2122822   1.403  -0.855   3.294
  408DIO    C2222823   1.314  -0.750   3.360
  408DIO    C2322824   1.394  -0.689   3.474
  408DIO     O422825   1.439  -0.791   3.564
  408DIO    C2422826   1.181  -0.808   3.413
  408DIO    C2522827   1.090  -0.875   3.309
  408DIO    C2622828   1.052  -0.784   3.194
  408DIO     H122829   2.772  -0.765   3.493
  408DIO     H222830   2.731  -0.696   3.058
  408DIO     H322831   2.554  -0.905   3.131
  408DIO     H422832   2.303  -0.924   3.154
  408DIO     H522833   2.303  -0.619   3.466
  408DIO     H622834   1.694  -1.001   3.309
  408DIO     H722835   1.683  -0.715   3.642
  408DIO     H822836   1.526  -0.973   3.574
  408DIO     H922837   1.489  -0.808   3.246
  408DIO    H1022838   1.350  -0.908   3.214
  408DIO    H1122839   1.291  -0.671   3.287
  408DIO    H1222840   1.333  -0.619   3.531
  408DIO    H1322841   1.481  -0.633   3.436
  408DIO    H1422842   1.201  -0.881   3.493
  408DIO    H1522843   1.124  -0.726   3.460
  408DIO    H1622844   1.138  -0.965   3.271
  408DIO    H1722845   0.998  -0.907   3.360
  408DIO    H1822846   1.008  -0.690   3.230
  408DIO    H1922847   1.138  -0.760   3.131
  408DIO    H2022848   0.978  -0.834   3.130
  409DIO     F122849   7.190  -0.622   2.154
  409DIO     C122850   7.112  -0.697   2.234
  409DIO     C222851   6.968  -0.681   2.229
  409DIO     C322852   6.879  -0.761   2.317
  409DIO     C422853   6.945  -0.858   2.407
  409DIO     C522854   7.089  -0.873   2.410
  409DIO     F222855   7.144  -0.965   2.490
  409DIO     C622856   7.173  -0.793   2.323
  409DIO     F322857   7.306  -0.807   2.328
  409DIO     C722858   6.733  -0.745   2.315
  409DIO     C822859   6.656  -0.724   2.439
  409DIO     C922860   6.511  -0.709   2.437
  409DIO    C1022861   6.438  -0.724   2.312
  409DIO    C1122862   6.511  -0.737   2.187
  409DIO    C1222863   6.655  -0.749   2.189
  409DIO     F422864   6.720  -0.766   2.072
  409DIO     O122865   6.306  -0.685   2.313
  409DIO    C1322866   6.212  -0.751   2.235
  409DIO     O222867   6.211  -0.863   2.179
  409DIO    C1422868   6.082  -0.681   2.232
  409DIO    C1522869   6.016  -0.634   2.356
  409DIO     F522870   6.079  -0.646   2.475
  409DIO    C1622871   5.885  -0.572   2.356
  409DIO    C1722872   5.810  -0.559   2.232
  409DIO    C1822873   5.878  -0.588   2.107
  409DIO    C1922874   6.010  -0.650   2.107
  409DIO     F622875   6.072  -0.661   1.988
  409DIO    C2022876   5.669  -0.504   2.231
  409DIO     O322877   5.599  -0.523   2.355
  409DIO    C2122878   5.555  -0.657   2.373
  409DIO    C2222879   5.467  -0.702   2.258
  409DIO    C2322880   5.547  -0.681   2.130
  409DIO     O422881   5.592  -0.546   2.119
  409DIO    C2422882   5.334  -0.623   2.250
  409DIO    C2522883   5.243  -0.632   2.373
  409DIO    C2622884   5.205  -0.774   2.411
  409DIO     H122885   6.925  -0.609   2.160
  409DIO     H222886   6.884  -0.926   2.467
  409DIO     H322887   6.707  -0.715   2.534
  409DIO     H422888   6.456  -0.686   2.527
  409DIO     H522889   6.456  -0.742   2.094
  409DIO     H622890   5.847  -0.532   2.449
  409DIO     H722891   5.835  -0.560   2.011
  409DIO     H822892   5.679  -0.395   2.221
  409DIO     H922893   5.642  -0.723   2.383
  409DIO    H1022894   5.503  -0.662   2.469
  409DIO    H1122895   5.444  -0.808   2.268
  409DIO    H1222896   5.486  -0.703   2.042
  409DIO    H1322897   5.633  -0.749   2.126
  409DIO    H1422898   5.354  -0.517   2.230
  409DIO    H1522899   5.277  -0.660   2.163
  409DIO    H1622900   5.290  -0.583   2.458
  409DIO    H1722901   5.151  -0.575   2.352
  409DIO    H1822902   5.161  -0.827   2.326
  409DIO    H1922903   5.291  -0.831   2.446
  409DIO    H2022904   5.131  -0.773   2.492
  410DIO     F122905   6.430   3.079   1.104
  410DIO     C122906   6.352   3.170   1.165
  410DIO     C222907   6.208   3.163   1.150
  410DIO     C322908   6.120   3.262   1.215
  410DIO     C422909   6.185   3.367   1.297
  410DIO     C522910   6.329   3.372   1.310
  410DIO     F222911   6.385   3.466   1.389
  410DIO     C622912   6.413   3.274   1.246
  410DIO     F322913   6.547   3.280   1.258
  410DIO     C722914   5.973   3.257   1.199
  410DIO     C822915   5.896   3.377   1.159
  410DIO     C922916   5.751   3.372   1.145
  410DIO    C1022917   5.679   3.252   1.179
  410DIO    C1122918   5.751   3.130   1.212
  410DIO    C1222919   5.895   3.134   1.224
  410DIO     F422920   5.960   3.021   1.259
  410DIO     O122921   5.547   3.247   1.140
  410DIO    C1322922   5.452   3.180   1.218
  410DIO     O222923   5.451   3.142   1.338
  410DIO    C1422924   5.323   3.166   1.150
  410DIO    C1522925   5.257   3.280   1.084
  410DIO     F522926   5.319   3.400   1.077
  410DIO    C1622927   5.126   3.270   1.022
  410DIO    C1722928   5.050   3.146   1.029
  410DIO    C1822929   5.119   3.027   1.078
  410DIO    C1922930   5.250   3.037   1.139
  410DIO     F622931   5.313   2.921   1.169
  410DIO    C2022932   4.909   3.137   0.975
  410DIO     O322933   4.840   3.262   0.974
  410DIO    C2122934   4.796   3.301   1.103
  410DIO    C2222935   4.707   3.194   1.166
  410DIO    C2322936   4.788   3.065   1.166
  410DIO     O422937   4.832   3.032   1.035
  410DIO    C2422938   4.574   3.174   1.090
  410DIO    C2522939   4.484   3.297   1.079
  410DIO    C2622940   4.445   3.357   1.213
  410DIO     H122941   6.166   3.083   1.090
  410DIO     H222942   6.124   3.436   1.354
  410DIO     H322943   5.948   3.469   1.135
  410DIO     H422944   5.696   3.457   1.107
  410DIO     H522945   5.697   3.039   1.232
  410DIO     H622946   5.088   3.356   0.967
  410DIO     H722947   5.076   2.928   1.065
  410DIO     H822948   4.919   3.108   0.869
  410DIO     H922949   4.883   3.321   1.167
  410DIO    H1022950   4.743   3.396   1.093
  410DIO    H1122951   4.685   3.222   1.270
  410DIO    H1222952   4.727   2.981   1.202
  410DIO    H1322953   4.874   3.072   1.234
  410DIO    H1422954   4.594   3.137   0.988
  410DIO    H1522955   4.518   3.094   1.140
  410DIO    H1622956   4.531   3.373   1.016
  410DIO    H1722957   4.392   3.267   1.026
  410DIO    H1822958   4.401   3.282   1.279
  410DIO    H1922959   4.532   3.401   1.263
  410DIO    H2022960   4.372   3.437   1.198
  411DIO     F122961   1.150   7.782   0.883
  411DIO     C122962   1.072   7.721   0.791
  411DIO     C222963   0.928   7.722   0.808
  411DIO     C322964   0.839   7.655   0.710
  411DIO     C422965   0.905   7.590   0.594
  411DIO     C522966   1.049   7.591   0.580
  411DIO     F222967   1.104   7.534   0.471
  411DIO     C622968   1.133   7.656   0.677
  411DIO     F322969   1.266   7.655   0.663
  411DIO     C722970   0.693   7.654   0.726
  411DIO     C822971   0.616   7.528   0.717
  411DIO     C922972   0.471   7.527   0.732
  411DIO    C1022973   0.398   7.651   0.747
  411DIO    C1122974   0.471   7.776   0.763
  411DIO    C1222975   0.615   7.777   0.751
  411DIO     F422976   0.680   7.895   0.761
  411DIO     O122977   0.266   7.641   0.784
  411DIO    C1322978   0.172   7.733   0.738
  411DIO     O222979   0.171   7.813   0.642
  411DIO    C1422980   0.042   7.719   0.807
  411DIO    C1522981  -0.024   7.588   0.824
  411DIO     F522982   0.039   7.475   0.784
  411DIO    C1622983  -0.155   7.574   0.885
  411DIO    C1722984  -0.230   7.691   0.926
  411DIO    C1822985  -0.162   7.820   0.926
  411DIO    C1922986  -0.030   7.834   0.866
  411DIO     F622987   0.032   7.952   0.883
  411DIO    C2022988  -0.371   7.679   0.980
  411DIO     O322989  -0.441   7.563   0.933
  411DIO    C2122990  -0.485   7.576   0.798
  411DIO    C2222991  -0.573   7.699   0.781
  411DIO    C2322992  -0.493   7.819   0.830
  411DIO     O422993  -0.448   7.799   0.964
  411DIO    C2422994  -0.706   7.689   0.859
  411DIO    C2522995  -0.797   7.571   0.822
  411DIO    C2622996  -0.835   7.567   0.675
  411DIO     H122997   0.885   7.773   0.893
  411DIO     H222998   0.844   7.548   0.515
  411DIO     H322999   0.667   7.434   0.704
  411DIO     H423000   0.416   7.434   0.734
  411DIO     H523001   0.416   7.868   0.779
  411DIO     H623002  -0.193   7.474   0.902
  411DIO     H723003  -0.205   7.906   0.976
  411DIO     H823004  -0.361   7.665   1.088
  411DIO     H923005  -0.398   7.582   0.731
  411DIO    H1023006  -0.537   7.485   0.770
  411DIO    H1123007  -0.596   7.714   0.675
  411DIO    H1223008  -0.554   7.910   0.829
  411DIO    H1323009  -0.407   7.838   0.765
  411DIO    H1423010  -0.686   7.684   0.967
  411DIO    H1523011  -0.763   7.782   0.843
  411DIO    H1623012  -0.750   7.477   0.850
  411DIO    H1723013  -0.889   7.578   0.882
  411DIO    H1823014  -0.879   7.662   0.643
  411DIO    H1923015  -0.749   7.546   0.612
  411DIO    H2023016  -0.909   7.488   0.658
  412DIO     F123017   2.326   3.471   7.197
  412DIO     C123018   2.248   3.408   7.107
  412DIO     C223019   2.104   3.410   7.124
  412DIO     C323020   2.016   3.340   7.028
  412DIO     C423021   2.081   3.272   6.914
  412DIO     C523022   2.225   3.272   6.899
  412DIO     F223023   2.281   3.213   6.792
  412DIO     C623024   2.309   3.340   6.995
  412DIO     F323025   2.443   3.339   6.981
  412DIO     C723026   1.869   3.339   7.044
  412DIO     C823027   1.792   3.213   7.038
  412DIO     C923028   1.647   3.212   7.053
  412DIO    C1023029   1.575   3.337   7.065
  412DIO    C1123030   1.647   3.462   7.078
  412DIO    C1223031   1.791   3.463   7.065
  412DIO     F423032   1.856   3.581   7.073
  412DIO     O123033   1.443   3.328   7.103
  412DIO    C1323034   1.348   3.418   7.054
  412DIO     O223035   1.347   3.497   6.956
  412DIO    C1423036   1.219   3.407   7.123
  412DIO    C1523037   1.153   3.276   7.143
  412DIO     F523038   1.215   3.162   7.107
  412DIO    C1623039   1.022   3.263   7.205
  412DIO    C1723040   0.946   3.382   7.243
  412DIO    C1823041   1.015   3.510   7.240
  412DIO    C1923042   1.146   3.523   7.180
  412DIO     F623043   1.209   3.642   7.193
  412DIO    C2023044   0.805   3.371   7.297
  412DIO     O323045   0.736   3.254   7.253
  412DIO    C2123046   0.692   3.264   7.118
  412DIO    C2223047   0.603   3.386   7.098
  412DIO    C2323048   0.684   3.507   7.144
  412DIO     O423049   0.728   3.490   7.278
  412DIO    C2423050   0.470   3.378   7.176
  412DIO    C2523051   0.380   3.259   7.142
  412DIO    C2623052   0.341   3.251   6.995
  412DIO     H123053   2.062   3.462   7.208
  412DIO     H223054   2.020   3.228   6.835
  412DIO     H323055   1.844   3.119   7.028
  412DIO     H423056   1.592   3.119   7.058
  412DIO     H523057   1.593   3.555   7.092
  412DIO     H623058   0.984   3.164   7.225
  412DIO     H723059   0.972   3.598   7.287
  412DIO     H823060   0.815   3.359   7.406
  412DIO     H923061   0.779   3.268   7.051
  412DIO    H1023062   0.639   3.171   7.093
  412DIO    H1123063   0.581   3.398   6.991
  412DIO    H1223064   0.623   3.598   7.141
  412DIO    H1323065   0.770   3.524   7.078
  412DIO    H1423066   0.490   3.375   7.284
  412DIO    H1523067   0.414   3.470   7.158
  412DIO    H1623068   0.427   3.165   7.173
  412DIO    H1723069   0.288   3.268   7.202
  412DIO    H1823070   0.297   3.345   6.961
  412DIO    H1923071   0.428   3.228   6.932
  412DIO    H2023072   0.268   3.172   6.980
  413DIO     F123073  10.373  10.412   0.816
  413DIO     C123074  10.295  10.338   0.734
  413DIO     C223075  10.151  10.341   0.751
  413DIO     C323076  10.062  10.260   0.665
  413DIO     C423077  10.128  10.177   0.561
  413DIO     C523078  10.272  10.175   0.547
  413DIO     F223079  10.327  10.102   0.448
  413DIO     C623080  10.356  10.256   0.632
  413DIO     F323081  10.489  10.252   0.618
  413DIO     C723082   9.916  10.261   0.681
  413DIO     C823083   9.839  10.135   0.692
  413DIO     C923084   9.694  10.136   0.707
  413DIO    C1023085   9.621  10.262   0.702
  413DIO    C1123086   9.694  10.388   0.699
  413DIO    C1223087   9.838  10.386   0.686
  413DIO     F423088   9.903  10.504   0.678
  413DIO     O123089   9.489  10.258   0.741
  413DIO    C1323090   9.395  10.341   0.681
  413DIO     O223091   9.394  10.405   0.573
  413DIO    C1423092   9.265  10.338   0.751
  413DIO    C1523093   9.199  10.211   0.788
  413DIO     F523094   9.262  10.094   0.767
  413DIO    C1623095   9.068  10.207   0.851
  413DIO    C1723096   8.993  10.330   0.873
  413DIO    C1823097   9.061  10.456   0.853
  413DIO    C1923098   9.193  10.461   0.792
  413DIO     F623099   9.255  10.580   0.789
  413DIO    C2023100   8.852  10.326   0.928
  413DIO     O323101   8.782  10.204   0.899
  413DIO    C2123102   8.738  10.196   0.764
  413DIO    C2223103   8.650  10.314   0.728
  413DIO    C2323104   8.730  10.441   0.758
  413DIO     O423105   8.775  10.441   0.894
  413DIO    C2423106   8.517  10.317   0.807
  413DIO    C2523107   8.426  10.195   0.789
  413DIO    C2623108   8.388  10.167   0.645
  413DIO     H123109  10.108  10.405   0.828
  413DIO     H223110  10.067  10.123   0.489
  413DIO     H323111   9.890  10.040   0.694
  413DIO     H423112   9.639  10.045   0.724
  413DIO     H523113   9.639  10.481   0.700
  413DIO     H623114   9.030  10.111   0.884
  413DIO     H723115   9.018  10.549   0.888
  413DIO     H823116   8.862  10.329   1.037
  413DIO     H923117   8.825  10.191   0.697
  413DIO    H1023118   8.686  10.101   0.752
  413DIO    H1123119   8.627  10.312   0.621
  413DIO    H1223120   8.669  10.530   0.743
  413DIO    H1323121   8.816  10.449   0.691
  413DIO    H1423122   8.537  10.328   0.914
  413DIO    H1523123   8.460  10.406   0.777
  413DIO    H1623124   8.473  10.105   0.832
  413DIO    H1723125   8.334  10.211   0.847
  413DIO    H1823126   8.344  10.256   0.598
  413DIO    H1923127   8.474  10.136   0.585
  413DIO    H2023128   8.314  10.086   0.640
  414DIO     F123129  10.148   9.572   7.992
  414DIO     C123130  10.070   9.471   7.949
  414DIO     C223131   9.926   9.481   7.962
  414DIO     C323132   9.837   9.372   7.918
  414DIO     C423133   9.903   9.253   7.857
  414DIO     C523134  10.047   9.246   7.845
  414DIO     F223135  10.102   9.138   7.785
  414DIO     C623136  10.131   9.354   7.890
  414DIO     F323137  10.264   9.346   7.878
  414DIO     C723138   9.691   9.379   7.932
  414DIO     C823139   9.614   9.269   7.994
  414DIO     C923140   9.469   9.277   8.007
  414DIO    C1023141   9.396   9.389   7.950
  414DIO    C1123142   9.469   9.502   7.895
  414DIO    C1223143   9.613   9.496   7.885
  414DIO     F423144   9.678   9.600   7.828
  414DIO     O123145   9.264   9.401   7.988
  414DIO    C1323146   9.170   9.452   7.899
  414DIO     O223147   9.169   9.466   7.774
  414DIO    C1423148   9.041   9.479   7.963
  414DIO    C1523149   8.974   9.378   8.050
  414DIO     F523150   9.037   9.263   8.079
  414DIO    C1623151   8.843   9.400   8.109
  414DIO    C1723152   8.768   9.521   8.078
  414DIO    C1823153   8.836   9.628   8.007
  414DIO    C1923154   8.968   9.607   7.950
  414DIO     F623155   9.031   9.715   7.898
  414DIO    C2023156   8.627   9.540   8.130
  414DIO     O323157   8.557   9.418   8.154
  414DIO    C2123158   8.514   9.354   8.034
  414DIO    C2223159   8.425   9.447   7.953
  414DIO    C2323160   8.505   9.575   7.928
  414DIO     O423161   8.550   9.632   8.051
  414DIO    C2423162   8.292   9.482   8.024
  414DIO    C2523163   8.201   9.364   8.058
  414DIO    C2623164   8.163   9.279   7.937
  414DIO     H123165   9.883   9.571   8.006
  414DIO     H223166   9.842   9.174   7.814
  414DIO     H323167   9.665   9.184   8.035
  414DIO     H423168   9.414   9.200   8.060
  414DIO     H523169   9.414   9.588   7.858
  414DIO     H623170   8.805   9.327   8.178
  414DIO     H723171   8.794   9.728   8.001
  414DIO     H823172   8.637   9.588   8.228
  414DIO     H923173   8.600   9.322   7.976
  414DIO    H1023174   8.461   9.263   8.062
  414DIO    H1123175   8.402   9.401   7.856
  414DIO    H1223176   8.444   9.650   7.877
  414DIO    H1323177   8.592   9.554   7.863
  414DIO    H1423178   8.312   9.537   8.116
  414DIO    H1523179   8.235   9.551   7.959
  414DIO    H1623180   8.249   9.300   8.133
  414DIO    H1723181   8.109   9.403   8.104
  414DIO    H1823182   8.119   9.340   7.858
  414DIO    H1923183   8.249   9.226   7.896
  414DIO    H2023184   8.089   9.203   7.967
  415DIO     F123185   4.864  -0.314   2.539
  415DIO     C123186   4.786  -0.298   2.648
  415DIO     C223187   4.642  -0.291   2.632
  415DIO     C323188   4.553  -0.271   2.749
  415DIO     C423189   4.619  -0.261   2.882
  415DIO     C523190   4.763  -0.268   2.895
  415DIO     F223191   4.818  -0.262   3.017
  415DIO     C623192   4.847  -0.287   2.779
  415DIO     F323193   4.980  -0.292   2.792
  415DIO     C723194   4.407  -0.264   2.735
  415DIO     C823195   4.330  -0.153   2.796
  415DIO     C923196   4.185  -0.146   2.783
  415DIO    C1023197   4.112  -0.253   2.718
  415DIO    C1123198   4.185  -0.359   2.650
  415DIO    C1223199   4.329  -0.365   2.661
  415DIO     F423200   4.394  -0.467   2.602
  415DIO     O123201   3.980  -0.228   2.688
  415DIO    C1323202   3.886  -0.330   2.691
  415DIO     O223203   3.885  -0.444   2.744
  415DIO    C1423204   3.756  -0.289   2.634
  415DIO    C1523205   3.690  -0.163   2.674
  415DIO     F523206   3.753  -0.077   2.757
  415DIO    C1623207   3.559  -0.124   2.625
  415DIO    C1723208   3.484  -0.213   2.538
  415DIO    C1823209   3.552  -0.330   2.484
  415DIO    C1923210   3.684  -0.368   2.532
  415DIO     F623211   3.746  -0.468   2.467
  415DIO    C2023212   3.343  -0.180   2.494
  415DIO     O323213   3.273  -0.095   2.586
  415DIO    C2123214   3.229  -0.163   2.703
  415DIO    C2223215   3.141  -0.282   2.666
  415DIO    C2323216   3.221  -0.370   2.571
  415DIO     O423217   3.266  -0.295   2.458
  415DIO    C2423218   3.008  -0.240   2.600
  415DIO    C2523219   2.917  -0.148   2.683
  415DIO    C2623220   2.879  -0.206   2.818
  415DIO     H123221   4.599  -0.301   2.533
  415DIO     H223222   4.558  -0.256   2.972
  415DIO     H323223   4.381  -0.073   2.848
  415DIO     H423224   4.130  -0.060   2.820
  415DIO     H523225   4.130  -0.436   2.597
  415DIO     H623226   3.521  -0.026   2.651
  415DIO     H723227   3.509  -0.387   2.402
  415DIO     H823228   3.353  -0.121   2.402
  415DIO     H923229   3.316  -0.197   2.761
  415DIO    H1023230   3.177  -0.091   2.766
  415DIO    H1123231   3.118  -0.339   2.757
  415DIO    H1223232   3.160  -0.453   2.534
  415DIO    H1323233   3.307  -0.414   2.622
  415DIO    H1423234   3.028  -0.189   2.504
  415DIO    H1523235   2.951  -0.330   2.575
  415DIO    H1623236   2.964  -0.050   2.697
  415DIO    H1723237   2.825  -0.130   2.625
  415DIO    H1823238   2.835  -0.306   2.807
  415DIO    H1923239   2.965  -0.213   2.884
  415DIO    H2023240   2.805  -0.142   2.867
  416DIO     F123241   7.809   6.621   5.670
  416DIO     C123242   7.732   6.711   5.734
  416DIO     C223243   7.588   6.704   5.719
  416DIO     C323244   7.499   6.802   5.785
  416DIO     C423245   7.564   6.905   5.869
  416DIO     C523246   7.709   6.910   5.883
  416DIO     F223247   7.764   7.002   5.964
  416DIO     C623248   7.792   6.813   5.816
  416DIO     F323249   7.926   6.819   5.829
  416DIO     C723250   7.353   6.798   5.770
  416DIO     C823251   7.275   6.918   5.732
  416DIO     C923252   7.131   6.914   5.717
  416DIO    C1023253   7.058   6.792   5.750
  416DIO    C1123254   7.131   6.670   5.780
  416DIO    C1223255   7.275   6.674   5.792
  416DIO     F423256   7.340   6.561   5.825
  416DIO     O123257   6.926   6.788   5.711
  416DIO    C1323258   6.831   6.720   5.787
  416DIO     O223259   6.831   6.680   5.906
  416DIO    C1423260   6.702   6.707   5.718
  416DIO    C1523261   6.636   6.823   5.655
  416DIO     F523262   6.699   6.943   5.650
  416DIO    C1623263   6.505   6.814   5.592
  416DIO    C1723264   6.429   6.690   5.597
  416DIO    C1823265   6.498   6.570   5.644
  416DIO    C1923266   6.630   6.579   5.704
  416DIO     F623267   6.692   6.462   5.732
  416DIO    C2023268   6.289   6.682   5.543
  416DIO     O323269   6.219   6.807   5.544
  416DIO    C2123270   6.175   6.844   5.675
  416DIO    C2223271   6.086   6.735   5.735
  416DIO    C2323272   6.167   6.606   5.733
  416DIO     O423273   6.211   6.576   5.601
  416DIO    C2423274   5.954   6.716   5.658
  416DIO    C2523275   5.863   6.840   5.650
  416DIO    C2623276   5.825   6.897   5.785
  416DIO     H123277   7.545   6.626   5.657
  416DIO     H223278   7.504   6.973   5.928
  416DIO     H323279   7.327   7.011   5.710
  416DIO     H423280   7.076   7.000   5.682
  416DIO     H523281   7.076   6.579   5.798
  416DIO     H623282   6.467   6.901   5.540
  416DIO     H723283   6.455   6.472   5.629
  416DIO     H823284   6.298   6.656   5.436
  416DIO     H923285   6.262   6.862   5.739
  416DIO    H1023286   6.123   6.939   5.667
  416DIO    H1123287   6.064   6.761   5.839
  416DIO    H1223288   6.106   6.522   5.767
  416DIO    H1323289   6.253   6.612   5.800
  416DIO    H1423290   5.974   6.682   5.556
  416DIO    H1523291   5.897   6.636   5.707
  416DIO    H1623292   5.910   6.917   5.589
  416DIO    H1723293   5.771   6.811   5.597
  416DIO    H1823294   5.781   6.820   5.850
  416DIO    H1923295   5.911   6.940   5.837
  416DIO    H2023296   5.751   6.977   5.773
  417DIO     F123297   5.336   6.160   4.901
  417DIO     C123298   5.258   6.186   5.008
  417DIO     C223299   5.114   6.191   4.992
  417DIO     C323300   5.026   6.221   5.107
  417DIO     C423301   5.091   6.243   5.238
  417DIO     C523302   5.235   6.238   5.251
  417DIO     F223303   5.291   6.254   5.373
  417DIO     C623304   5.319   6.209   5.137
  417DIO     F323305   5.453   6.205   5.151
  417DIO     C723306   4.879   6.228   5.092
  417DIO     C823307   4.802   6.343   5.143
  417DIO     C923308   4.657   6.350   5.129
  417DIO    C1023309   4.585   6.237   5.073
  417DIO    C1123310   4.657   6.125   5.016
  417DIO    C1223311   4.801   6.120   5.027
  417DIO     F423312   4.866   6.013   4.977
  417DIO     O123313   4.453   6.259   5.041
  417DIO    C1323314   4.358   6.158   5.054
  417DIO     O223315   4.357   6.049   5.117
  417DIO    C1423316   4.229   6.193   4.994
  417DIO    C1523317   4.163   6.323   5.022
  417DIO     F523318   4.225   6.416   5.098
  417DIO    C1623319   4.032   6.357   4.970
  417DIO    C1723320   3.956   6.260   4.891
  417DIO    C1823321   4.025   6.139   4.847
  417DIO    C1923322   4.156   6.106   4.899
  417DIO     F623323   4.219   6.000   4.843
  417DIO    C2023324   3.815   6.290   4.845
  417DIO     O323325   3.746   6.383   4.928
  417DIO    C2123326   3.702   6.325   5.051
  417DIO    C2223327   3.613   6.204   5.025
  417DIO    C2323328   3.694   6.108   4.938
  417DIO     O423329   3.738   6.172   4.819
  417DIO    C2423330   3.480   6.240   4.955
  417DIO    C2523331   3.390   6.338   5.030
  417DIO    C2623332   3.351   6.292   5.169
  417DIO     H123333   5.072   6.172   4.894
  417DIO     H223334   5.030   6.256   5.327
  417DIO     H323335   4.854   6.428   5.187
  417DIO     H423336   4.602   6.438   5.159
  417DIO     H523337   4.603   6.044   4.969
  417DIO     H623338   3.994   6.457   4.987
  417DIO     H723339   3.982   6.075   4.771
  417DIO     H823340   3.825   6.340   4.748
  417DIO     H923341   3.789   6.297   5.111
  417DIO    H1023342   3.649   6.402   5.107
  417DIO    H1123343   3.591   6.154   5.120
  417DIO    H1223344   3.633   6.022   4.908
  417DIO    H1323345   3.780   6.068   4.993
  417DIO    H1423346   3.500   6.281   4.855
  417DIO    H1523347   3.424   6.147   4.938
  417DIO    H1623348   3.437   6.437   5.035
  417DIO    H1723349   3.298   6.351   4.971
  417DIO    H1823350   3.307   6.192   5.167
  417DIO    H1923351   3.438   6.291   5.236
  417DIO    H2023352   3.278   6.361   5.212
  418DIO     F123353   6.192   7.991   2.441
  418DIO     C123354   6.115   7.932   2.534
  418DIO     C223355   5.971   7.947   2.526
  418DIO     C323356   5.882   7.885   2.627
  418DIO     C423357   5.947   7.806   2.734
  418DIO     C523358   6.092   7.792   2.739
  418DIO     F223359   6.147   7.716   2.836
  418DIO     C623360   6.175   7.855   2.640
  418DIO     F323361   6.309   7.842   2.646
  418DIO     C723362   5.736   7.900   2.622
  418DIO     C823363   5.658   7.944   2.741
  418DIO     C923364   5.514   7.958   2.736
  418DIO    C1023365   5.441   7.920   2.616
  418DIO    C1123366   5.514   7.885   2.495
  418DIO    C1223367   5.658   7.873   2.500
  418DIO     F423368   5.723   7.834   2.388
  418DIO     O123369   5.309   7.959   2.610
  418DIO    C1323370   5.214   7.880   2.545
  418DIO     O223371   5.214   7.759   2.511
  418DIO    C1423372   5.085   7.948   2.529
  418DIO    C1523373   5.019   8.016   2.642
  418DIO     F523374   5.082   8.027   2.761
  418DIO    C1623375   4.888   8.078   2.630
  418DIO    C1723376   4.812   8.068   2.506
  418DIO    C1823377   4.881   8.016   2.389
  418DIO    C1923378   5.013   7.955   2.401
  418DIO     F623379   5.075   7.922   2.285
  418DIO    C2023380   4.672   8.122   2.496
  418DIO     O323381   4.602   8.126   2.621
  418DIO    C2123382   4.558   7.998   2.664
  418DIO    C2223383   4.469   7.932   2.558
  418DIO    C2323384   4.550   7.929   2.429
  418DIO     O423385   4.594   8.059   2.393
  418DIO    C2423386   4.337   8.008   2.536
  418DIO    C2523387   4.246   8.022   2.658
  418DIO    C2623388   4.208   7.889   2.722
  418DIO     H123389   5.928   8.005   2.445
  418DIO     H223390   5.887   7.750   2.805
  418DIO     H323391   5.710   7.970   2.832
  418DIO     H423392   5.459   7.998   2.820
  418DIO     H523393   5.459   7.862   2.404
  418DIO     H623394   4.850   8.135   2.715
  418DIO     H723395   4.838   8.026   2.290
  418DIO     H823396   4.681   8.227   2.465
  418DIO     H923397   4.645   7.934   2.685
  418DIO    H1023398   4.506   8.010   2.758
  418DIO    H1123399   4.447   7.829   2.588
  418DIO    H1223400   4.489   7.890   2.346
  418DIO    H1323401   4.636   7.861   2.438
  418DIO    H1423402   4.357   8.108   2.497
  418DIO    H1523403   4.280   7.956   2.457
  418DIO    H1623404   4.293   8.086   2.733
  418DIO    H1723405   4.154   8.074   2.627
  418DIO    H1823406   4.164   7.821   2.648
  418DIO    H1923407   4.294   7.840   2.767
  418DIO    H2023408   4.134   7.906   2.801
  419DIO     F123409   2.751   4.709   9.299
  419DIO     C123410   2.673   4.647   9.208
  419DIO     C223411   2.529   4.648   9.225
  419DIO     C323412   2.440   4.579   9.129
  419DIO     C423413   2.506   4.511   9.015
  419DIO     C523414   2.650   4.512   9.000
  419DIO     F223415   2.706   4.453   8.892
  419DIO     C623416   2.734   4.580   9.096
  419DIO     F323417   2.868   4.578   9.082
  419DIO     C723418   2.294   4.578   9.145
  419DIO     C823419   2.217   4.452   9.139
  419DIO     C923420   2.072   4.451   9.154
  419DIO    C1023421   2.000   4.576   9.166
  419DIO    C1123422   2.072   4.701   9.180
  419DIO    C1223423   2.216   4.702   9.167
  419DIO     F423424   2.281   4.820   9.175
  419DIO     O123425   1.867   4.567   9.204
  419DIO    C1323426   1.773   4.657   9.156
  419DIO     O223427   1.772   4.736   9.058
  419DIO    C1423428   1.644   4.645   9.224
  419DIO    C1523429   1.578   4.515   9.244
  419DIO     F523430   1.640   4.401   9.207
  419DIO    C1623431   1.447   4.501   9.306
  419DIO    C1723432   1.371   4.620   9.344
  419DIO    C1823433   1.440   4.748   9.342
  419DIO    C1923434   1.571   4.761   9.282
  419DIO     F623435   1.634   4.880   9.296
  419DIO    C2023436   1.230   4.609   9.398
  419DIO     O323437   1.161   4.492   9.354
  419DIO    C2123438   1.117   4.502   9.218
  419DIO    C2223439   1.028   4.625   9.199
  419DIO    C2323440   1.109   4.746   9.246
  419DIO     O423441   1.153   4.728   9.380
  419DIO    C2423442   0.895   4.616   9.277
  419DIO    C2523443   0.805   4.498   9.243
  419DIO    C2623444   0.766   4.490   9.096
  419DIO     H123445   2.487   4.701   9.310
  419DIO     H223446   2.445   4.468   8.936
  419DIO     H323447   2.268   4.358   9.128
  419DIO     H423448   2.017   4.358   9.158
  419DIO     H523449   2.018   4.794   9.194
  419DIO     H623450   1.409   4.402   9.325
  419DIO     H723451   1.397   4.836   9.390
  419DIO     H823452   1.240   4.597   9.507
  419DIO     H923453   1.204   4.507   9.152
  419DIO    H1023454   1.064   4.410   9.193
  419DIO    H1123455   1.005   4.637   9.092
  419DIO    H1223456   1.048   4.836   9.243
  419DIO    H1323457   1.195   4.763   9.180
  419DIO    H1423458   0.915   4.613   9.385
  419DIO    H1523459   0.839   4.709   9.260
  419DIO    H1623460   0.852   4.404   9.273
  419DIO    H1723461   0.713   4.506   9.303
  419DIO    H1823462   0.722   4.584   9.062
  419DIO    H1923463   0.853   4.467   9.033
  419DIO    H2023464   0.692   4.411   9.081
  420DIO     F123465   6.111   3.395   8.832
  420DIO     C123466   6.033   3.352   8.934
  420DIO     C223467   5.889   3.366   8.924
  420DIO     C323468   5.800   3.322   9.034
  420DIO     C423469   5.866   3.263   9.153
  420DIO     C523470   6.010   3.251   9.161
  420DIO     F223471   6.066   3.192   9.269
  420DIO     C623472   6.094   3.294   9.052
  420DIO     F323473   6.228   3.283   9.060
  420DIO     C723474   5.654   3.336   9.026
  420DIO     C823475   5.577   3.400   9.136
  420DIO     C923476   5.432   3.413   9.128
  420DIO    C1023477   5.360   3.355   9.017
  420DIO    C1123478   5.432   3.299   8.904
  420DIO    C1223479   5.576   3.288   8.910
  420DIO     F423480   5.641   3.231   8.807
  420DIO     O123481   5.227   3.392   9.004
  420DIO    C1323482   5.133   3.303   8.954
  420DIO     O223483   5.132   3.177   8.941
  420DIO    C1423484   5.004   3.367   8.927
  420DIO    C1523485   4.938   3.454   9.026
  420DIO     F523486   5.000   3.485   9.141
  420DIO    C1623487   4.807   3.513   9.003
  420DIO    C1723488   4.731   3.481   8.883
  420DIO    C1823489   4.800   3.409   8.776
  420DIO    C1923490   4.931   3.352   8.798
  420DIO     F623491   4.994   3.299   8.691
  420DIO    C2023492   4.590   3.532   8.863
  420DIO     O323493   4.521   3.558   8.986
  420DIO    C2123494   4.477   3.439   9.050
  420DIO    C2223495   4.388   3.356   8.958
  420DIO    C2323496   4.469   3.330   8.831
  420DIO     O423497   4.513   3.453   8.773
  420DIO    C2423498   4.255   3.427   8.922
  420DIO    C2523499   4.165   3.462   9.041
  420DIO    C2623500   4.126   3.343   9.127
  420DIO     H123501   5.847   3.408   8.834
  420DIO     H223502   5.805   3.221   9.232
  420DIO     H323503   5.628   3.442   9.221
  420DIO     H423504   5.377   3.467   9.204
  420DIO     H523505   5.378   3.260   8.819
  420DIO     H623506   4.769   3.583   9.076
  420DIO     H723507   4.757   3.402   8.677
  420DIO     H823508   4.600   3.630   8.814
  420DIO     H923509   4.564   3.381   9.083
  420DIO    H1023510   4.424   3.468   9.141
  420DIO    H1123511   4.365   3.260   9.006
  420DIO    H1223512   4.408   3.278   8.756
  420DIO    H1323513   4.555   3.266   8.852
  420DIO    H1423514   4.275   3.519   8.866
  420DIO    H1523515   4.199   3.362   8.854
  420DIO    H1623516   4.212   3.539   9.103
  420DIO    H1723517   4.073   3.508   9.001
  420DIO    H1823518   4.082   3.263   9.066
  420DIO    H1923519   4.213   3.302   9.180
  420DIO    H2023520   4.052   3.373   9.202
  421DIO     F123521   8.973   0.515   1.819
  421DIO     C123522   8.895   0.576   1.910
  421DIO     C223523   8.751   0.575   1.893
  421DIO     C323524   8.662   0.643   1.991
  421DIO     C423525   8.728   0.709   2.106
  421DIO     C523526   8.872   0.708   2.121
  421DIO     F223527   8.927   0.765   2.229
  421DIO     C623528   8.956   0.642   2.024
  421DIO     F323529   9.089   0.643   2.038
  421DIO     C723530   8.516   0.644   1.975
  421DIO     C823531   8.439   0.770   1.983
  421DIO     C923532   8.294   0.771   1.968
  421DIO    C1023533   8.221   0.646   1.954
  421DIO    C1123534   8.294   0.521   1.938
  421DIO    C1223535   8.438   0.521   1.951
  421DIO     F423536   8.503   0.403   1.941
  421DIO     O123537   8.089   0.656   1.916
  421DIO    C1323538   7.995   0.565   1.963
  421DIO     O223539   7.994   0.485   2.060
  421DIO    C1423540   7.865   0.578   1.894
  421DIO    C1523541   7.799   0.709   1.877
  421DIO     F523542   7.862   0.822   1.915
  421DIO    C1623543   7.668   0.723   1.815
  421DIO    C1723544   7.593   0.605   1.775
  421DIO    C1823545   7.661   0.477   1.775
  421DIO    C1923546   7.793   0.463   1.835
  421DIO     F623547   7.855   0.345   1.819
  421DIO    C2023548   7.452   0.617   1.721
  421DIO     O323549   7.382   0.733   1.768
  421DIO    C2123550   7.338   0.721   1.902
  421DIO    C2223551   7.250   0.598   1.920
  421DIO    C2323552   7.330   0.478   1.871
  421DIO     O423553   7.375   0.498   1.737
  421DIO    C2423554   7.117   0.608   1.842
  421DIO    C2523555   7.026   0.726   1.878
  421DIO    C2623556   6.988   0.731   2.025
  421DIO     H123557   8.708   0.524   1.808
  421DIO     H223558   8.667   0.751   2.185
  421DIO     H323559   8.490   0.864   1.995
  421DIO     H423560   8.239   0.864   1.965
  421DIO     H523561   8.239   0.429   1.922
  421DIO     H623562   7.630   0.823   1.797
  421DIO     H723563   7.618   0.390   1.726
  421DIO     H823564   7.462   0.631   1.613
  421DIO     H923565   7.425   0.716   1.969
  421DIO    H1023566   7.286   0.813   1.929
  421DIO    H1123567   7.227   0.585   2.026
  421DIO    H1223568   7.269   0.387   1.873
  421DIO    H1323569   7.416   0.460   1.936
  421DIO    H1423570   7.137   0.613   1.734
  421DIO    H1523571   7.060   0.515   1.858
  421DIO    H1623572   7.073   0.821   1.849
  421DIO    H1723573   6.934   0.719   1.818
  421DIO    H1823574   6.944   0.636   2.058
  421DIO    H1923575   7.074   0.753   2.088
  421DIO    H2023576   6.914   0.810   2.042
  422DIO     F123577  10.856   2.128  -0.951
  422DIO     C123578  10.779   2.144  -0.842
  422DIO     C223579  10.635   2.151  -0.858
  422DIO     C323580  10.546   2.171  -0.741
  422DIO     C423581  10.611   2.181  -0.609
  422DIO     C523582  10.756   2.174  -0.596
  422DIO     F223583  10.811   2.180  -0.473
  422DIO     C623584  10.839   2.156  -0.712
  422DIO     F323585  10.973   2.151  -0.698
  422DIO     C723586  10.400   2.178  -0.755
  422DIO     C823587  10.322   2.289  -0.694
  422DIO     C923588  10.178   2.297  -0.707
  422DIO    C1023589  10.105   2.189  -0.773
  422DIO    C1123590  10.178   2.083  -0.840
  422DIO    C1223591  10.322   2.077  -0.829
  422DIO     F423592  10.387   1.975  -0.888
  422DIO     O123593   9.973   2.215  -0.803
  422DIO    C1323594   9.878   2.112  -0.799
  422DIO     O223595   9.878   1.998  -0.746
  422DIO    C1423596   9.749   2.153  -0.856
  422DIO    C1523597   9.683   2.279  -0.816
  422DIO     F523598   9.746   2.365  -0.733
  422DIO    C1623599   9.552   2.318  -0.866
  422DIO    C1723600   9.476   2.229  -0.953
  422DIO    C1823601   9.545   2.112  -1.007
  422DIO    C1923602   9.677   2.074  -0.958
  422DIO     F623603   9.739   1.974  -1.023
  422DIO    C2023604   9.336   2.262  -0.996
  422DIO     O323605   9.266   2.348  -0.904
  422DIO    C2123606   9.222   2.279  -0.788
  422DIO    C2223607   9.133   2.160  -0.824
  422DIO    C2323608   9.214   2.072  -0.919
  422DIO     O423609   9.258   2.147  -1.032
  422DIO    C2423610   9.001   2.203  -0.891
  422DIO    C2523611   8.910   2.294  -0.808
  422DIO    C2623612   8.872   2.236  -0.672
  422DIO     H123613  10.592   2.141  -0.957
  422DIO     H223614  10.551   2.186  -0.519
  422DIO     H323615  10.374   2.369  -0.643
  422DIO     H423616  10.123   2.382  -0.670
  422DIO     H523617  10.123   2.006  -0.894
  422DIO     H623618   9.514   2.416  -0.839
  422DIO     H723619   9.502   2.055  -1.088
  422DIO     H823620   9.345   2.321  -1.088
  422DIO     H923621   9.309   2.246  -0.730
  422DIO    H1023622   9.170   2.351  -0.724
  422DIO    H1123623   9.111   2.103  -0.734
  422DIO    H1223624   9.153   1.990  -0.957
  422DIO    H1323625   9.300   2.028  -0.868
  422DIO    H1423626   9.021   2.253  -0.986
  422DIO    H1523627   8.944   2.112  -0.916
  422DIO    H1623628   8.957   2.392  -0.793
  422DIO    H1723629   8.818   2.313  -0.865
  422DIO    H1823630   8.828   2.136  -0.683
  422DIO    H1923631   8.958   2.229  -0.606
  422DIO    H2023632   8.798   2.300  -0.624
  423DIO     F123633   8.577  10.505   0.091
  423DIO     C123634   8.500  10.555   0.189
  423DIO     C223635   8.355  10.556   0.172
  423DIO     C323636   8.267  10.611   0.277
  423DIO     C423637   8.332  10.663   0.399
  423DIO     C523638   8.476  10.660   0.414
  423DIO     F223639   8.532  10.704   0.528
  423DIO     C623640   8.560  10.606   0.309
  423DIO     F323641   8.694  10.606   0.324
  423DIO     C723642   8.120  10.614   0.261
  423DIO     C823643   8.043  10.738   0.284
  423DIO     C923644   7.898  10.741   0.269
  423DIO    C1023645   7.826  10.619   0.241
  423DIO    C1123646   7.898  10.497   0.210
  423DIO    C1223647   8.042  10.495   0.222
  423DIO     F423648   8.107  10.379   0.198
  423DIO     O123649   7.694  10.634   0.204
  423DIO    C1323650   7.599  10.538   0.240
  423DIO     O223651   7.598  10.446   0.326
  423DIO    C1423652   7.470  10.559   0.173
  423DIO    C1523653   7.404  10.691   0.171
  423DIO     F523654   7.466  10.799   0.223
  423DIO    C1623655   7.273  10.712   0.112
  423DIO    C1723656   7.197  10.600   0.058
  423DIO    C1823657   7.266  10.472   0.043
  423DIO    C1923658   7.398  10.452   0.101
  423DIO     F623659   7.460  10.336   0.071
  423DIO    C2023660   7.056  10.618   0.006
  423DIO     O323661   6.987  10.728   0.066
  423DIO    C2123662   6.943  10.700   0.199
  423DIO    C2223663   6.854  10.576   0.201
  423DIO    C2323664   6.935  10.462   0.138
  423DIO     O423665   6.979  10.498   0.008
  423DIO    C2423666   6.721  10.595   0.125
  423DIO    C2523667   6.631  10.707   0.175
  423DIO    C2623668   6.592  10.695   0.321
  423DIO     H123669   8.313  10.515   0.081
  423DIO     H223670   8.272  10.695   0.483
  423DIO     H323671   8.095  10.831   0.308
  423DIO     H423672   7.843  10.834   0.278
  423DIO     H523673   7.844  10.407   0.183
  423DIO     H623674   7.235  10.813   0.106
  423DIO     H723675   7.223  10.392  -0.016
  423DIO     H823676   7.066  10.645  -0.100
  423DIO     H923677   7.030  10.686   0.264
  423DIO    H1023678   6.890  10.788   0.236
  423DIO    H1123679   6.832  10.549   0.305
  423DIO    H1223680   6.874  10.372   0.129
  423DIO    H1323681   7.021  10.436   0.201
  423DIO    H1423682   6.741  10.612   0.018
  423DIO    H1523683   6.665  10.501   0.130
  423DIO    H1623684   6.678  10.805   0.158
  423DIO    H1723685   6.539  10.707   0.115
  423DIO    H1823686   6.548  10.597   0.342
  423DIO    H1923687   6.679  10.709   0.387
  423DIO    H2023688   6.519  10.771   0.348
  424DIO     F123689   1.485  -0.238   2.159
  424DIO     C123690   1.408  -0.129   2.149
  424DIO     C223691   1.264  -0.144   2.141
  424DIO     C323692   1.175  -0.027   2.128
  424DIO     C423693   1.240   0.106   2.125
  424DIO     C523694   1.385   0.119   2.133
  424DIO     F223695   1.440   0.242   2.134
  424DIO     C623696   1.468   0.002   2.145
  424DIO     F323697   1.602   0.015   2.151
  424DIO     C723698   1.028  -0.040   2.120
  424DIO     C823699   0.951   0.027   2.013
  424DIO     C923700   0.807   0.014   2.004
  424DIO    C1023701   0.734  -0.057   2.108
  424DIO    C1123702   0.807  -0.131   2.210
  424DIO    C1223703   0.951  -0.120   2.217
  424DIO     F423704   1.016  -0.184   2.316
  424DIO     O123705   0.602  -0.086   2.081
  424DIO    C1323706   0.507  -0.088   2.183
  424DIO     O223707   0.506  -0.041   2.300
  424DIO    C1423708   0.378  -0.142   2.139
  424DIO    C1523709   0.312  -0.095   2.016
  424DIO     F523710   0.375  -0.008   1.934
  424DIO    C1623711   0.181  -0.143   1.974
  424DIO    C1723712   0.105  -0.234   2.058
  424DIO    C1823713   0.174  -0.295   2.172
  424DIO    C1923714   0.306  -0.249   2.212
  424DIO     F623715   0.368  -0.319   2.309
  424DIO    C2023716  -0.035  -0.276   2.022
  424DIO     O323717  -0.105  -0.180   1.942
  424DIO    C2123718  -0.149  -0.067   2.017
  424DIO    C2223719  -0.238  -0.110   2.134
  424DIO    C2323720  -0.157  -0.210   2.216
  424DIO     O423721  -0.113  -0.318   2.135
  424DIO    C2423722  -0.370  -0.174   2.088
  424DIO    C2523723  -0.461  -0.086   2.001
  424DIO    C2623724  -0.500   0.046   2.067
  424DIO     H123725   1.221  -0.244   2.146
  424DIO     H223726   1.180   0.196   2.126
  424DIO     H323727   1.003   0.083   1.936
  424DIO     H423728   0.752   0.056   1.921
  424DIO     H523729   0.752  -0.188   2.284
  424DIO     H623730   0.143  -0.111   1.878
  424DIO     H723731   0.131  -0.379   2.224
  424DIO     H823732  -0.026  -0.365   1.959
  424DIO     H923733  -0.062  -0.011   2.054
  424DIO    H1023734  -0.202   0.000   1.949
  424DIO    H1123735  -0.260  -0.023   2.196
  424DIO    H1223736  -0.218  -0.252   2.297
  424DIO    H1323737  -0.071  -0.161   2.264
  424DIO    H1423738  -0.351  -0.267   2.032
  424DIO    H1523739  -0.427  -0.204   2.177
  424DIO    H1623740  -0.414  -0.066   1.905
  424DIO    H1723741  -0.553  -0.142   1.980
  424DIO    H1823742  -0.543   0.029   2.166
  424DIO    H1923743  -0.413   0.112   2.078
  424DIO    H2023744  -0.573   0.098   2.005
  425DIO     F123745   3.276   2.399   4.065
  425DIO     C123746   3.198   2.484   4.134
  425DIO     C223747   3.054   2.478   4.118
  425DIO     C323748   2.965   2.572   4.191
  425DIO     C423749   3.031   2.669   4.282
  425DIO     C523750   3.175   2.673   4.296
  425DIO     F223751   3.230   2.760   4.383
  425DIO     C623752   3.259   2.580   4.223
  425DIO     F323753   3.392   2.586   4.236
  425DIO     C723754   2.819   2.568   4.175
  425DIO     C823755   2.742   2.691   4.146
  425DIO     C923756   2.597   2.687   4.131
  425DIO    C1023757   2.524   2.564   4.155
  425DIO    C1123758   2.597   2.440   4.177
  425DIO    C1223759   2.741   2.443   4.189
  425DIO     F423760   2.806   2.328   4.215
  425DIO     O123761   2.392   2.563   4.116
  425DIO    C1323762   2.298   2.489   4.187
  425DIO     O223763   2.297   2.441   4.304
  425DIO    C1423764   2.168   2.481   4.118
  425DIO    C1523765   2.102   2.601   4.062
  425DIO     F523766   2.165   2.721   4.066
  425DIO    C1623767   1.971   2.596   4.000
  425DIO    C1723768   1.896   2.472   3.996
  425DIO    C1823769   1.964   2.349   4.035
  425DIO    C1923770   2.096   2.354   4.096
  425DIO     F623771   2.158   2.236   4.116
  425DIO    C2023772   1.755   2.467   3.941
  425DIO     O323773   1.685   2.592   3.951
  425DIO    C2123774   1.641   2.620   4.084
  425DIO    C2223775   1.553   2.508   4.137
  425DIO    C2323776   1.633   2.379   4.126
  425DIO     O423777   1.678   2.358   3.992
  425DIO    C2423778   1.420   2.494   4.059
  425DIO    C2523779   1.329   2.618   4.059
  425DIO    C2623780   1.291   2.666   4.198
  425DIO     H123781   3.011   2.404   4.052
  425DIO     H223782   2.970   2.733   4.345
  425DIO     H323783   2.793   2.785   4.130
  425DIO     H423784   2.542   2.776   4.101
  425DIO     H523785   2.542   2.348   4.189
  425DIO     H623786   1.933   2.686   3.953
  425DIO     H723787   1.921   2.252   4.013
  425DIO     H823788   1.765   2.449   3.834
  425DIO     H923789   1.728   2.635   4.149
  425DIO    H1023790   1.589   2.716   4.082
  425DIO    H1123791   1.530   2.527   4.242
  425DIO    H1223792   1.572   2.293   4.154
  425DIO    H1323793   1.719   2.381   4.194
  425DIO    H1423794   1.440   2.467   3.955
  425DIO    H1523795   1.363   2.411   4.102
  425DIO    H1623796   1.376   2.700   4.003
  425DIO    H1723797   1.237   2.593   4.004
  425DIO    H1823798   1.247   2.585   4.257
  425DIO    H1923799   1.377   2.706   4.252
  425DIO    H2023800   1.217   2.747   4.190
  426DIO     F123801   8.959   6.580   4.904
  426DIO     C123802   8.882   6.475   4.871
  426DIO     C223803   8.738   6.486   4.883
  426DIO     C323804   8.649   6.373   4.850
  426DIO     C423805   8.714   6.249   4.802
  426DIO     C523806   8.859   6.240   4.790
  426DIO     F223807   8.914   6.127   4.741
  426DIO     C623808   8.942   6.353   4.824
  426DIO     F323809   9.076   6.343   4.813
  426DIO     C723810   8.502   6.382   4.863
  426DIO     C823811   8.425   6.279   4.936
  426DIO     C923812   8.281   6.287   4.949
  426DIO    C1023813   8.208   6.393   4.881
  426DIO    C1123814   8.280   6.500   4.815
  426DIO    C1223815   8.425   6.493   4.805
  426DIO     F423816   8.489   6.591   4.738
  426DIO     O123817   8.076   6.409   4.917
  426DIO    C1323818   7.981   6.451   4.823
  426DIO     O223819   7.980   6.452   4.697
  426DIO    C1423820   7.852   6.484   4.884
  426DIO    C1523821   7.786   6.393   4.981
  426DIO     F523822   7.848   6.280   5.022
  426DIO    C1623823   7.655   6.420   5.037
  426DIO    C1723824   7.579   6.538   4.995
  426DIO    C1823825   7.648   6.637   4.913
  426DIO    C1923826   7.780   6.610   4.858
  426DIO     F623827   7.842   6.712   4.796
  426DIO    C2023828   7.439   6.562   5.044
  426DIO     O323829   7.369   6.442   5.081
  426DIO    C2123830   7.325   6.367   4.968
  426DIO    C2223831   7.236   6.452   4.877
  426DIO    C2323832   7.317   6.576   4.840
  426DIO     O423833   7.361   6.645   4.956
  426DIO    C2423834   7.103   6.493   4.944
  426DIO    C2523835   7.013   6.379   4.990
  426DIO    C2623836   6.974   6.282   4.879
  426DIO     H123837   8.695   6.580   4.918
  426DIO     H223838   8.654   6.166   4.767
  426DIO     H323839   8.477   6.198   4.986
  426DIO     H423840   8.225   6.216   5.009
  426DIO     H523841   8.226   6.582   4.769
  426DIO     H623842   7.617   6.354   5.114
  426DIO     H723843   7.605   6.735   4.897
  426DIO     H823844   7.448   6.619   5.137
  426DIO     H923845   7.412   6.330   4.913
  426DIO    H1023846   7.272   6.279   5.005
  426DIO    H1123847   7.214   6.396   4.786
  426DIO    H1223848   7.256   6.646   4.781
  426DIO    H1323849   7.403   6.549   4.777
  426DIO    H1423850   7.123   6.557   5.031
  426DIO    H1523851   7.047   6.555   4.873
  426DIO    H1623852   7.060   6.323   5.072
  426DIO    H1723853   6.921   6.422   5.032
  426DIO    H1823854   6.930   6.336   4.794
  426DIO    H1923855   7.061   6.226   4.843
  426DIO    H2023856   6.901   6.210   4.916
  427DIO     F123857   8.572   6.719   4.339
  427DIO     C123858   8.494   6.770   4.436
  427DIO     C223859   8.350   6.771   4.419
  427DIO     C323860   8.261   6.828   4.523
  427DIO     C423861   8.327   6.881   4.645
  427DIO     C523862   8.471   6.879   4.659
  427DIO     F223863   8.527   6.925   4.773
  427DIO     C623864   8.555   6.823   4.556
  427DIO     F323865   8.689   6.823   4.570
  427DIO     C723866   8.115   6.831   4.507
  427DIO     C823867   8.038   6.955   4.528
  427DIO     C923868   7.893   6.958   4.513
  427DIO    C1023869   7.821   6.835   4.487
  427DIO    C1123870   7.893   6.713   4.458
  427DIO    C1223871   8.037   6.711   4.471
  427DIO     F423872   8.102   6.595   4.449
  427DIO     O123873   7.688   6.849   4.450
  427DIO    C1323874   7.594   6.754   4.487
  427DIO     O223875   7.593   6.664   4.575
  427DIO    C1423876   7.465   6.774   4.420
  427DIO    C1523877   7.399   6.906   4.416
  427DIO     F523878   7.461   7.014   4.466
  427DIO    C1623879   7.268   6.926   4.357
  427DIO    C1723880   7.192   6.813   4.304
  427DIO    C1823881   7.261   6.685   4.292
  427DIO    C1923882   7.392   6.665   4.350
  427DIO     F623883   7.455   6.549   4.322
  427DIO    C2023884   7.051   6.830   4.252
  427DIO     O323885   6.982   6.941   4.310
  427DIO    C2123886   6.938   6.915   4.443
  427DIO    C2223887   6.849   6.791   4.448
  427DIO    C2323888   6.930   6.676   4.387
  427DIO     O423889   6.974   6.710   4.256
  427DIO    C2423890   6.716   6.809   4.371
  427DIO    C2523891   6.626   6.922   4.419
  427DIO    C2623892   6.587   6.912   4.566
  427DIO     H123893   8.308   6.729   4.329
  427DIO     H223894   8.266   6.916   4.728
  427DIO     H323895   8.089   7.048   4.550
  427DIO     H423896   7.838   7.051   4.520
  427DIO     H523897   7.839   6.623   4.433
  427DIO     H623898   7.230   7.027   4.349
  427DIO     H723899   7.218   6.604   4.234
  427DIO     H823900   7.061   6.855   4.146
  427DIO     H923901   7.025   6.903   4.509
  427DIO    H1023902   6.885   7.004   4.479
  427DIO    H1123903   6.826   6.766   4.552
  427DIO    H1223904   6.869   6.586   4.379
  427DIO    H1323905   7.016   6.651   4.450
  427DIO    H1423906   6.736   6.825   4.264
  427DIO    H1523907   6.660   6.715   4.378
  427DIO    H1623908   6.673   7.019   4.401
  427DIO    H1723909   6.534   6.921   4.359
  427DIO    H1823910   6.543   6.815   4.589
  427DIO    H1923911   6.674   6.927   4.631
  427DIO    H2023912   6.513   6.989   4.591
  428DIO     F123913   8.057   9.481   0.727
  428DIO     C123914   7.980   9.569   0.662
  428DIO     C223915   7.836   9.552   0.664
  428DIO     C323916   7.747   9.646   0.591
  428DIO     C423917   7.812   9.758   0.519
  428DIO     C523918   7.957   9.772   0.518
  428DIO     F223919   8.012   9.877   0.455
  428DIO     C623920   8.040   9.679   0.590
  428DIO     F323921   8.174   9.693   0.588
  428DIO     C723922   7.600   9.630   0.590
  428DIO     C823923   7.523   9.631   0.464
  428DIO     C923924   7.379   9.616   0.464
  428DIO    C1023925   7.306   9.609   0.589
  428DIO    C1123926   7.379   9.600   0.715
  428DIO    C1223927   7.523   9.613   0.715
  428DIO     F423928   7.588   9.609   0.833
  428DIO     O123929   7.174   9.571   0.581
  428DIO    C1323930   7.079   9.622   0.670
  428DIO     O223931   7.078   9.723   0.745
  428DIO    C1423932   6.950   9.553   0.661
  428DIO    C1523933   6.884   9.528   0.531
  428DIO     F523934   6.947   9.561   0.416
  428DIO    C1623935   6.753   9.466   0.520
  428DIO    C1723936   6.677   9.432   0.640
  428DIO    C1823937   6.746   9.440   0.768
  428DIO    C1923938   6.878   9.501   0.778
  428DIO     F623939   6.940   9.491   0.898
  428DIO    C2023940   6.537   9.378   0.631
  428DIO     O323941   6.467   9.418   0.512
  428DIO    C2123942   6.423   9.554   0.517
  428DIO    C2223943   6.334   9.578   0.639
  428DIO    C2323944   6.415   9.536   0.762
  428DIO     O423945   6.459   9.401   0.749
  428DIO    C2423946   6.202   9.499   0.634
  428DIO    C2523947   6.111   9.529   0.514
  428DIO    C2623948   6.072   9.675   0.501
  428DIO     H123949   7.793   9.470   0.719
  428DIO     H223950   7.752   9.834   0.472
  428DIO     H323951   7.575   9.638   0.369
  428DIO     H423952   7.324   9.608   0.371
  428DIO     H523953   7.324   9.589   0.808
  428DIO     H623954   6.715   9.443   0.421
  428DIO     H723955   6.703   9.396   0.857
  428DIO     H823956   6.546   9.269   0.623
  428DIO     H923957   6.510   9.620   0.519
  428DIO    H1023958   6.370   9.575   0.424
  428DIO    H1123959   6.312   9.685   0.647
  428DIO    H1223960   6.354   9.542   0.852
  428DIO    H1323961   6.501   9.602   0.776
  428DIO    H1423962   6.221   9.391   0.635
  428DIO    H1523963   6.145   9.520   0.725
  428DIO    H1623964   6.158   9.495   0.421
  428DIO    H1723965   6.019   9.470   0.525
  428DIO    H1823966   6.029   9.713   0.593
  428DIO    H1923967   6.159   9.737   0.475
  428DIO    H2023968   5.999   9.688   0.421
  429DIO     F123969   9.237   9.194   9.898
  429DIO     C123970   9.159   9.269   9.979
  429DIO     C223971   9.015   9.265   9.962
  429DIO     C323972   8.926   9.347  10.048
  429DIO     C423973   8.992   9.430  10.151
  429DIO     C523974   9.136   9.432  10.166
  429DIO     F223975   9.191   9.506  10.264
  429DIO     C623976   9.220   9.351  10.081
  429DIO     F323977   9.354   9.355  10.094
  429DIO     C723978   8.780   9.346  10.032
  429DIO     C823979   8.703   9.472  10.020
  429DIO     C923980   8.558   9.470  10.005
  429DIO    C1023981   8.485   9.345  10.011
  429DIO    C1123982   8.558   9.219  10.015
  429DIO    C1223983   8.702   9.220  10.028
  429DIO     F423984   8.767   9.102  10.037
  429DIO     O123985   8.353   9.349   9.972
  429DIO    C1323986   8.259   9.266  10.032
  429DIO     O223987   8.258   9.202  10.141
  429DIO    C1423988   8.130   9.268   9.963
  429DIO    C1523989   8.063   9.395   9.925
  429DIO     F523990   8.126   9.512   9.945
  429DIO    C1623991   7.933   9.399   9.862
  429DIO    C1723992   7.857   9.276   9.840
  429DIO    C1823993   7.926   9.149   9.861
  429DIO    C1923994   8.057   9.145   9.923
  429DIO     F623995   8.120   9.026   9.926
  429DIO    C2023996   7.716   9.279   9.786
  429DIO     O323997   7.646   9.401   9.813
  429DIO    C2123998   7.603   9.410   9.948
  429DIO    C2223999   7.514   9.292   9.985
  429DIO    C2324000   7.595   9.166   9.956
  429DIO     O424001   7.639   9.164   9.820
  429DIO    C2424002   7.381   9.289   9.906
  429DIO    C2524003   7.290   9.411   9.923
  429DIO    C2624004   7.252   9.440  10.068
  429DIO     H124005   8.972   9.201   9.886
  429DIO     H224006   8.931   9.485  10.223
  429DIO     H324007   8.754   9.567  10.017
  429DIO     H424008   8.503   9.562   9.988
  429DIO     H524009   8.504   9.126  10.014
  429DIO     H624010   7.894   9.494   9.828
  429DIO     H724011   7.883   9.056   9.827
  429DIO     H824012   7.726   9.276   9.676
  429DIO     H924013   7.689   9.416  10.015
  429DIO    H1024014   7.550   9.505   9.960
  429DIO    H1124015   7.491   9.295  10.092
  429DIO    H1224016   7.533   9.076   9.972
  429DIO    H1324017   7.681   9.158  10.023
  429DIO    H1424018   7.401   9.277   9.799
  429DIO    H1524019   7.325   9.200   9.937
  429DIO    H1624020   7.338   9.500   9.880
  429DIO    H1724021   7.199   9.395   9.866
  429DIO    H1824022   7.208   9.351  10.115
  429DIO    H1924023   7.338   9.471  10.127
  429DIO    H2024024   7.178   9.521  10.072
  430DIO     F124025   8.858  10.096   4.401
  430DIO     C124026   8.780  10.154   4.308
  430DIO     C224027   8.636  10.139   4.316
  430DIO     C324028   8.547  10.199   4.214
  430DIO     C424029   8.613  10.277   4.106
  430DIO     C524030   8.757  10.291   4.101
  430DIO     F224031   8.813  10.366   4.003
  430DIO     C624032   8.841  10.230   4.201
  430DIO     F324033   8.975  10.242   4.194
  430DIO     C724034   8.401  10.184   4.220
  430DIO     C824035   8.324  10.139   4.102
  430DIO     C924036   8.179  10.125   4.107
  430DIO    C1024037   8.107  10.165   4.226
  430DIO    C1124038   8.179  10.202   4.346
  430DIO    C1224039   8.323  10.214   4.342
  430DIO     F424040   8.388  10.254   4.453
  430DIO     O124041   7.974  10.126   4.233
  430DIO    C1324042   7.880  10.206   4.296
  430DIO     O224043   7.879  10.328   4.329
  430DIO    C1424044   7.751  10.138   4.313
  430DIO    C1524045   7.684  10.068   4.201
  430DIO     F524046   7.747  10.056   4.082
  430DIO    C1624047   7.554  10.006   4.214
  430DIO    C1724048   7.478  10.018   4.338
  430DIO    C1824049   7.547  10.072   4.454
  430DIO    C1924050   7.678  10.132   4.442
  430DIO     F624051   7.741  10.167   4.556
  430DIO    C2024052   7.337   9.965   4.349
  430DIO     O324053   7.267   9.959   4.224
  430DIO    C2124054   7.224  10.087   4.179
  430DIO    C2224055   7.135  10.154   4.284
  430DIO    C2324056   7.216  10.159   4.413
  430DIO     O424057   7.260  10.029   4.451
  430DIO    C2424058   7.002  10.078   4.308
  430DIO    C2524059   6.911  10.062   4.185
  430DIO    C2624060   6.873  10.194   4.119
  430DIO     H124061   8.594  10.082   4.398
  430DIO     H224062   8.552  10.332   4.035
  430DIO     H324063   8.375  10.111   4.011
  430DIO     H424064   8.124  10.084   4.023
  430DIO     H524065   8.125  10.226   4.437
  430DIO     H624066   7.516   9.949   4.130
  430DIO     H724067   7.504  10.064   4.553
  430DIO     H824068   7.347   9.860   4.381
  430DIO     H924069   7.310  10.150   4.157
  430DIO    H1024070   7.171  10.073   4.085
  430DIO    H1124071   7.112  10.256   4.252
  430DIO    H1224072   7.155  10.198   4.495
  430DIO    H1324073   7.302  10.226   4.403
  430DIO    H1424074   7.022   9.978   4.348
  430DIO    H1524075   6.946  10.132   4.385
  430DIO    H1624076   6.959   9.997   4.111
  430DIO    H1724077   6.820  10.011   4.217
  430DIO    H1824078   6.829  10.263   4.192
  430DIO    H1924079   6.960  10.243   4.073
  430DIO    H2024080   6.799  10.176   4.040
  431DIO     F124081   9.495   4.593   1.224
  431DIO     C124082   9.417   4.676   1.152
  431DIO     C224083   9.273   4.660   1.155
  431DIO     C324084   9.185   4.748   1.076
  431DIO     C424085   9.250   4.854   0.996
  431DIO     C524086   9.394   4.869   0.995
  431DIO     F224087   9.450   4.970   0.925
  431DIO     C624088   9.478   4.781   1.073
  431DIO     F324089   9.612   4.795   1.070
  431DIO     C724090   9.038   4.732   1.077
  431DIO     C824091   8.961   4.724   0.950
  431DIO     C924092   8.816   4.709   0.951
  431DIO    C1024093   8.744   4.711   1.077
  431DIO    C1124094   8.816   4.711   1.203
  431DIO    C1224095   8.960   4.723   1.202
  431DIO     F424096   9.025   4.728   1.320
  431DIO     O124097   8.612   4.672   1.072
  431DIO    C1324098   8.517   4.730   1.156
  431DIO     O224099   8.516   4.836   1.224
  431DIO    C1424100   8.388   4.660   1.152
  431DIO    C1524101   8.322   4.627   1.024
  431DIO     F524102   8.384   4.651   0.907
  431DIO    C1624103   8.191   4.564   1.018
  431DIO    C1724104   8.115   4.538   1.140
  431DIO    C1824105   8.184   4.555   1.267
  431DIO    C1924106   8.315   4.616   1.273
  431DIO     F624107   8.378   4.615   1.393
  431DIO    C2024108   7.974   4.484   1.134
  431DIO     O324109   7.905   4.515   1.013
  431DIO    C2124110   7.861   4.651   1.009
  431DIO    C2224111   7.772   4.683   1.129
  431DIO    C2324112   7.853   4.650   1.254
  431DIO     O424113   7.897   4.514   1.251
  431DIO    C2424114   7.639   4.604   1.129
  431DIO    C2524115   7.549   4.626   1.007
  431DIO    C2624116   7.510   4.771   0.984
  431DIO     H124117   9.231   4.581   1.216
  431DIO     H224118   9.189   4.928   0.944
  431DIO     H324119   9.013   4.725   0.855
  431DIO     H424120   8.761   4.695   0.859
  431DIO     H524121   8.762   4.707   1.296
  431DIO     H624122   8.153   4.534   0.921
  431DIO     H724123   8.141   4.517   1.359
  431DIO     H824124   7.984   4.374   1.134
  431DIO     H924125   7.948   4.718   1.006
  431DIO    H1024126   7.808   4.666   0.915
  431DIO    H1124127   7.750   4.790   1.129
  431DIO    H1224128   7.792   4.663   1.344
  431DIO    H1324129   7.939   4.717   1.264
  431DIO    H1424130   7.659   4.497   1.137
  431DIO    H1524131   7.583   4.632   1.219
  431DIO    H1624132   7.596   4.586   0.917
  431DIO    H1724133   7.457   4.567   1.022
  431DIO    H1824134   7.466   4.815   1.074
  431DIO    H1924135   7.597   4.831   0.954
  431DIO    H2024136   7.437   4.778   0.903
  432DIO     F124137   6.249   9.963   3.901
  432DIO     C124138   6.171  10.073   3.904
  432DIO     C224139   6.027  10.059   3.895
  432DIO     C324140   5.939  10.177   3.895
  432DIO     C424141   6.004  10.310   3.907
  432DIO     C524142   6.148  10.322   3.916
  432DIO     F224143   6.204  10.443   3.930
  432DIO     C624144   6.232  10.204   3.915
  432DIO     F324145   6.366  10.216   3.922
  432DIO     C724146   5.792  10.165   3.885
  432DIO     C824147   5.715  10.244   3.786
  432DIO     C924148   5.570  10.232   3.776
  432DIO    C1024149   5.498  10.149   3.871
  432DIO    C1124150   5.570  10.065   3.965
  432DIO    C1224151   5.714  10.075   3.972
  432DIO     F424152   5.779  10.000   4.063
  432DIO     O124153   5.366  10.124   3.841
  432DIO    C1324154   5.271  10.110   3.943
  432DIO     O224155   5.270  10.144   4.064
  432DIO    C1424156   5.142  10.061   3.893
  432DIO    C1524157   5.076  10.122   3.775
  432DIO     F524158   5.138  10.218   3.704
  432DIO    C1624159   4.945  10.079   3.729
  432DIO    C1724160   4.869   9.979   3.802
  432DIO    C1824161   4.938   9.906   3.908
  432DIO    C1924162   5.069   9.947   3.953
  432DIO     F624163   5.132   9.866   4.042
  432DIO    C2024164   4.728   9.942   3.762
  432DIO     O324165   4.659  10.046   3.693
  432DIO    C2124166   4.615  10.150   3.780
  432DIO    C2224167   4.526  10.094   3.891
  432DIO    C2324168   4.607   9.985   3.962
  432DIO     O424169   4.651   9.887   3.869
  432DIO    C2424170   4.393  10.035   3.838
  432DIO    C2524171   4.303  10.133   3.762
  432DIO    C2624172   4.264  10.256   3.842
  432DIO     H124173   5.985   9.960   3.888
  432DIO     H224174   5.943  10.399   3.917
  432DIO     H324175   5.767  10.308   3.716
  432DIO     H424176   5.515  10.283   3.699
  432DIO     H524177   5.516  10.000   4.031
  432DIO     H624178   4.907  10.122   3.637
  432DIO     H724179   4.895   9.816   3.951
  432DIO     H824180   4.738   9.861   3.689
  432DIO     H924181   4.702  10.201   3.823
  432DIO    H1024182   4.562  10.224   3.720
  432DIO    H1124183   4.504  10.173   3.963
  432DIO    H1224184   4.546   9.935   4.037
  432DIO    H1324185   4.693  10.028   4.014
  432DIO    H1424186   4.413   9.949   3.773
  432DIO    H1524187   4.337   9.996   3.924
  432DIO    H1624188   4.350  10.163   3.668
  432DIO    H1724189   4.211  10.079   3.734
  432DIO    H1824190   4.220  10.229   3.939
  432DIO    H1924191   4.351  10.321   3.860
  432DIO    H2024192   4.191  10.315   3.787
  433DIO     F124193  10.632   1.175   3.399
  433DIO     C124194  10.554   1.124   3.497
  433DIO     C224195  10.410   1.139   3.488
  433DIO     C324196  10.321   1.086   3.594
  433DIO     C424197  10.387   1.017   3.707
  433DIO     C524198  10.531   1.004   3.714
  433DIO     F224199  10.587   0.937   3.817
  433DIO     C624200  10.615   1.057   3.609
  433DIO     F324201  10.749   1.045   3.617
  433DIO     C724202  10.175   1.101   3.587
  433DIO     C824203  10.098   1.155   3.701
  433DIO     C924204   9.953   1.169   3.695
  433DIO    C1024205   9.881   1.120   3.579
  433DIO    C1124206   9.953   1.074   3.462
  433DIO    C1224207  10.097   1.062   3.468
  433DIO     F424208  10.162   1.014   3.360
  433DIO     O124209   9.748   1.158   3.570
  433DIO    C1324210   9.654   1.073   3.513
  433DIO     O224211   9.653   0.950   3.489
  433DIO    C1424212   9.525   1.139   3.491
  433DIO    C1524213   9.458   1.218   3.597
  433DIO     F524214   9.521   1.240   3.714
  433DIO    C1624215   9.328   1.279   3.579
  433DIO    C1724216   9.252   1.257   3.456
  433DIO    C1824217   9.321   1.194   3.344
  433DIO    C1924218   9.452   1.135   3.362
  433DIO     F624219   9.515   1.092   3.250
  433DIO    C2024220   9.111   1.310   3.441
  433DIO     O324221   9.041   1.326   3.565
  433DIO    C2124222   8.998   1.202   3.620
  433DIO    C2224223   8.909   1.127   3.521
  433DIO    C2324224   8.990   1.111   3.392
  433DIO     O424225   9.034   1.238   3.344
  433DIO    C2424226   8.776   1.200   3.491
  433DIO    C2524227   8.685   1.225   3.612
  433DIO    C2624228   8.647   1.099   3.688
  433DIO     H124229  10.368   1.189   3.401
  433DIO     H224230  10.326   0.969   3.783
  433DIO     H324231  10.149   1.190   3.790
  433DIO     H424232   9.898   1.216   3.775
  433DIO     H524233   9.899   1.043   3.374
  433DIO     H624234   9.290   1.343   3.658
  433DIO     H724235   9.278   1.195   3.245
  433DIO     H824236   9.121   1.411   3.401
  433DIO     H924237   9.084   1.141   3.647
  433DIO    H1024238   8.945   1.223   3.713
  433DIO    H1124239   8.886   1.027   3.560
  433DIO    H1224240   8.929   1.066   3.313
  433DIO    H1324241   9.076   1.045   3.408
  433DIO    H1424242   8.796   1.297   3.443
  433DIO    H1524243   8.720   1.141   3.418
  433DIO    H1624244   8.733   1.296   3.681
  433DIO    H1724245   8.594   1.274   3.577
  433DIO    H1824246   8.603   1.025   3.621
  433DIO    H1924247   8.734   1.054   3.738
  433DIO    H2024248   8.573   1.123   3.765
  434DIO     F124249   2.132   6.986  -0.232
  434DIO     C124250   2.054   7.027  -0.334
  434DIO     C224251   1.910   7.013  -0.324
  434DIO     C324252   1.821   7.055  -0.435
  434DIO     C424253   1.887   7.112  -0.555
  434DIO     C524254   2.031   7.124  -0.562
  434DIO     F224255   2.087   7.181  -0.672
  434DIO     C624256   2.115   7.083  -0.453
  434DIO     F324257   2.249   7.094  -0.462
  434DIO     C724258   1.675   7.041  -0.427
  434DIO     C824259   1.598   6.976  -0.535
  434DIO     C924260   1.453   6.963  -0.527
  434DIO    C1024261   1.381   7.023  -0.417
  434DIO    C1124262   1.453   7.081  -0.305
  434DIO    C1224263   1.597   7.091  -0.312
  434DIO     F424264   1.662   7.151  -0.209
  434DIO     O124265   1.248   6.986  -0.403
  434DIO    C1324266   1.154   7.076  -0.355
  434DIO     O224267   1.153   7.201  -0.344
  434DIO    C1424268   1.025   7.012  -0.327
  434DIO    C1524269   0.959   6.923  -0.424
  434DIO     F524270   1.021   6.890  -0.539
  434DIO    C1624271   0.828   6.865  -0.401
  434DIO    C1724272   0.752   6.899  -0.281
  434DIO    C1824273   0.821   6.972  -0.176
  434DIO    C1924274   0.952   7.029  -0.199
  434DIO     F624275   1.015   7.084  -0.092
  434DIO    C2024276   0.611   6.848  -0.260
  434DIO     O324277   0.542   6.820  -0.382
  434DIO    C2124278   0.498   6.938  -0.449
  434DIO    C2224279   0.409   7.022  -0.358
  434DIO    C2324280   0.490   7.050  -0.231
  434DIO     O424281   0.534   6.929  -0.171
  434DIO    C2424282   0.276   6.952  -0.321
  434DIO    C2524283   0.186   6.915  -0.439
  434DIO    C2624284   0.147   7.033  -0.527
  434DIO     H124285   1.868   6.972  -0.233
  434DIO     H224286   1.826   7.153  -0.635
  434DIO     H324287   1.649   6.932  -0.619
  434DIO     H424288   1.398   6.908  -0.602
  434DIO     H524289   1.399   7.120  -0.220
  434DIO     H624290   0.790   6.793  -0.473
  434DIO     H724291   0.778   6.981  -0.077
  434DIO     H824292   0.621   6.751  -0.210
  434DIO     H924293   0.585   6.996  -0.482
  434DIO    H1024294   0.445   6.907  -0.540
  434DIO    H1124295   0.386   7.117  -0.407
  434DIO    H1224296   0.429   7.104  -0.158
  434DIO    H1324297   0.576   7.115  -0.253
  434DIO    H1424298   0.296   6.861  -0.264
  434DIO    H1524299   0.220   7.018  -0.254
  434DIO    H1624300   0.233   6.837  -0.500
  434DIO    H1724301   0.094   6.870  -0.399
  434DIO    H1824302   0.103   7.114  -0.468
  434DIO    H1924303   0.234   7.072  -0.581
  434DIO    H2024304   0.073   7.001  -0.601
  435DIO     F124305  10.728   8.872  -0.082
  435DIO     C124306  10.650   8.767  -0.116
  435DIO     C224307  10.506   8.778  -0.103
  435DIO     C324308  10.417   8.665  -0.136
  435DIO     C424309  10.483   8.541  -0.185
  435DIO     C524310  10.627   8.532  -0.197
  435DIO     F224311  10.683   8.420  -0.246
  435DIO     C624312  10.711   8.645  -0.163
  435DIO     F324313  10.845   8.635  -0.173
  435DIO     C724314  10.271   8.674  -0.123
  435DIO     C824315  10.194   8.570  -0.051
  435DIO     C924316  10.049   8.579  -0.038
  435DIO    C1024317   9.977   8.685  -0.106
  435DIO    C1124318  10.049   8.792  -0.171
  435DIO    C1224319  10.193   8.785  -0.182
  435DIO     F424320  10.258   8.883  -0.248
  435DIO     O124321   9.844   8.701  -0.070
  435DIO    C1324322   9.750   8.743  -0.163
  435DIO     O224323   9.749   8.745  -0.289
  435DIO    C1424324   9.621   8.776  -0.102
  435DIO    C1524325   9.554   8.684  -0.006
  435DIO     F524326   9.617   8.572   0.035
  435DIO    C1624327   9.424   8.712   0.051
  435DIO    C1724328   9.348   8.829   0.009
  435DIO    C1824329   9.417   8.929  -0.072
  435DIO    C1924330   9.548   8.902  -0.128
  435DIO     F624331   9.611   9.005  -0.190
  435DIO    C2024332   9.207   8.853   0.058
  435DIO     O324333   9.137   8.734   0.094
  435DIO    C2124334   9.094   8.659  -0.019
  435DIO    C2224335   9.005   8.744  -0.109
  435DIO    C2324336   9.086   8.868  -0.146
  435DIO     O424337   9.130   8.936  -0.030
  435DIO    C2424338   8.872   8.785  -0.042
  435DIO    C2524339   8.781   8.670   0.003
  435DIO    C2624340   8.743   8.574  -0.108
  435DIO     H124341  10.464   8.872  -0.068
  435DIO     H224342  10.422   8.458  -0.221
  435DIO     H324343  10.245   8.489  -0.001
  435DIO     H424344   9.994   8.508   0.022
  435DIO     H524345   9.995   8.874  -0.217
  435DIO     H624346   9.386   8.645   0.127
  435DIO     H724347   9.374   9.027  -0.088
  435DIO     H824348   9.217   8.910   0.151
  435DIO     H924349   9.180   8.622  -0.074
  435DIO    H1024350   9.041   8.571   0.018
  435DIO    H1124351   8.982   8.688  -0.201
  435DIO    H1224352   9.025   8.938  -0.205
  435DIO    H1324353   9.172   8.841  -0.209
  435DIO    H1424354   8.892   8.849   0.045
  435DIO    H1524355   8.816   8.847  -0.113
  435DIO    H1624356   8.829   8.615   0.085
  435DIO    H1724357   8.690   8.714   0.045
  435DIO    H1824358   8.699   8.628  -0.193
  435DIO    H1924359   8.830   8.518  -0.144
  435DIO    H2024360   8.669   8.502  -0.071
  436DIO     F124361   7.175   0.199   8.968
  436DIO     C124362   7.098   0.160   9.071
  436DIO     C224363   6.953   0.173   9.060
  436DIO     C324364   6.865   0.133   9.172
  436DIO     C424365   6.930   0.076   9.292
  436DIO     C524366   7.074   0.064   9.300
  436DIO     F224367   7.130   0.009   9.410
  436DIO     C624368   7.158   0.105   9.190
  436DIO     F324369   7.292   0.094   9.199
  436DIO     C724370   6.718   0.146   9.163
  436DIO     C824371   6.641   0.212   9.271
  436DIO     C924372   6.496   0.225   9.263
  436DIO    C1024373   6.424   0.164   9.153
  436DIO    C1124374   6.496   0.105   9.042
  436DIO    C1224375   6.640   0.095   9.049
  436DIO     F424376   6.705   0.035   8.947
  436DIO     O124377   6.292   0.201   9.140
  436DIO    C1324378   6.197   0.111   9.092
  436DIO     O224379   6.196  -0.015   9.083
  436DIO    C1424380   6.068   0.174   9.063
  436DIO    C1524381   6.002   0.264   9.160
  436DIO     F524382   6.064   0.298   9.275
  436DIO    C1624383   5.871   0.322   9.136
  436DIO    C1724384   5.795   0.287   9.016
  436DIO    C1824385   5.864   0.213   8.912
  436DIO    C1924386   5.996   0.156   8.935
  436DIO     F624387   6.058   0.100   8.829
  436DIO    C2024388   5.654   0.338   8.995
  436DIO     O324389   5.585   0.367   9.117
  436DIO    C2124390   5.541   0.250   9.185
  436DIO    C2224391   5.452   0.165   9.094
  436DIO    C2324392   5.533   0.135   8.968
  436DIO     O424393   5.577   0.256   8.907
  436DIO    C2424394   5.319   0.234   9.057
  436DIO    C2524395   5.229   0.273   9.174
  436DIO    C2624396   5.190   0.155   9.264
  436DIO     H124397   6.911   0.213   8.969
  436DIO     H224398   6.870   0.036   9.373
  436DIO     H324399   6.693   0.257   9.355
  436DIO     H424400   6.441   0.281   9.338
  436DIO     H524401   6.442   0.065   8.958
  436DIO     H624402   5.833   0.394   9.207
  436DIO     H724403   5.821   0.203   8.813
  436DIO     H824404   5.664   0.434   8.944
  436DIO     H924405   5.628   0.192   9.219
  436DIO    H1024406   5.488   0.281   9.275
  436DIO    H1124407   5.430   0.070   9.145
  436DIO    H1224408   5.472   0.081   8.895
  436DIO    H1324409   5.619   0.071   8.991
  436DIO    H1424410   5.339   0.325   8.999
  436DIO    H1524411   5.263   0.167   8.991
  436DIO    H1624412   5.276   0.351   9.235
  436DIO    H1724413   5.137   0.317   9.134
  436DIO    H1824414   5.146   0.074   9.205
  436DIO    H1924415   5.277   0.116   9.318
  436DIO    H2024416   5.117   0.188   9.338
  437DIO     F124417   2.072   1.733   0.943
  437DIO     C124418   1.995   1.623   0.935
  437DIO     C224419   1.851   1.637   0.945
  437DIO     C324420   1.762   1.519   0.940
  437DIO     C424421   1.827   1.387   0.922
  437DIO     C524422   1.972   1.376   0.913
  437DIO     F224423   2.027   1.255   0.893
  437DIO     C624424   2.055   1.493   0.919
  437DIO     F324425   2.189   1.481   0.911
  437DIO     C724426   1.615   1.531   0.951
  437DIO     C824427   1.538   1.448   1.046
  437DIO     C924428   1.394   1.460   1.056
  437DIO    C1024429   1.321   1.546   0.965
  437DIO    C1124430   1.394   1.634   0.875
  437DIO    C1224431   1.538   1.625   0.867
  437DIO     F424432   1.603   1.704   0.779
  437DIO     O124433   1.189   1.570   0.996
  437DIO    C1324434   1.094   1.588   0.895
  437DIO     O224435   1.093   1.560   0.773
  437DIO    C1424436   0.965   1.635   0.947
  437DIO    C1524437   0.899   1.570   1.062
  437DIO     F524438   0.962   1.470   1.129
  437DIO    C1624439   0.768   1.610   1.110
  437DIO    C1724440   0.692   1.714   1.041
  437DIO    C1824441   0.761   1.791   0.938
  437DIO    C1924442   0.893   1.751   0.891
  437DIO     F624443   0.955   1.836   0.806
  437DIO    C2024444   0.552   1.749   1.083
  437DIO     O324445   0.482   1.642   1.147
  437DIO    C2124446   0.438   1.542   1.056
  437DIO    C2224447   0.349   1.602   0.947
  437DIO    C2324448   0.430   1.714   0.881
  437DIO     O424449   0.474   1.808   0.978
  437DIO    C2424450   0.217   1.659   1.002
  437DIO    C2524451   0.126   1.558   1.074
  437DIO    C2624452   0.087   1.438   0.989
  437DIO     H124453   1.808   1.736   0.956
  437DIO     H224454   1.767   1.298   0.908
  437DIO     H324455   1.590   1.381   1.113
  437DIO     H424456   1.339   1.405   1.132
  437DIO     H524457   1.339   1.703   0.811
  437DIO     H624458   0.730   1.564   1.200
  437DIO     H724459   0.718   1.882   0.899
  437DIO     H824460   0.561   1.827   1.160
  437DIO     H924461   0.525   1.492   1.011
  437DIO    H1024462   0.385   1.465   1.113
  437DIO    H1124463   0.327   1.526   0.872
  437DIO    H1224464   0.369   1.767   0.808
  437DIO    H1324465   0.516   1.673   0.827
  437DIO    H1424466   0.236   1.742   1.072
  437DIO    H1524467   0.160   1.702   0.919
  437DIO    H1624468   0.173   1.524   1.167
  437DIO    H1724469   0.034   1.610   1.105
  437DIO    H1824470   0.044   1.470   0.894
  437DIO    H1924471   0.174   1.375   0.968
  437DIO    H2024472   0.014   1.377   1.042
  438DIO     F124473   1.604   5.958   0.121
  438DIO     C124474   1.527   5.855   0.083
  438DIO     C224475   1.382   5.865   0.097
  438DIO     C324476   1.294   5.753   0.058
  438DIO     C424477   1.359   5.632   0.005
  438DIO     C524478   1.503   5.624  -0.007
  438DIO     F224479   1.559   5.513  -0.061
  438DIO     C624480   1.587   5.735   0.031
  438DIO     F324481   1.721   5.725   0.021
  438DIO     C724482   1.147   5.762   0.072
  438DIO     C824483   1.070   5.656   0.140
  438DIO     C924484   0.925   5.664   0.153
  438DIO    C1024485   0.853   5.772   0.090
  438DIO    C1124486   0.925   5.882   0.029
  438DIO    C1224487   1.069   5.875   0.018
  438DIO     F424488   1.134   5.976  -0.044
  438DIO     O124489   0.721   5.787   0.126
  438DIO    C1324490   0.626   5.832   0.035
  438DIO     O224491   0.625   5.839  -0.091
  438DIO    C1424492   0.497   5.863   0.098
  438DIO    C1524493   0.431   5.768   0.190
  438DIO     F524494   0.493   5.654   0.226
  438DIO    C1624495   0.300   5.793   0.247
  438DIO    C1724496   0.224   5.912   0.210
  438DIO    C1824497   0.293   6.015   0.133
  438DIO    C1924498   0.425   5.990   0.077
  438DIO     F624499   0.487   6.095   0.019
  438DIO    C2024500   0.083   5.934   0.260
  438DIO     O324501   0.014   5.813   0.292
  438DIO    C2124502  -0.030   5.743   0.176
  438DIO    C2224503  -0.119   5.831   0.089
  438DIO    C2324504  -0.038   5.957   0.057
  438DIO     O424505   0.006   6.020   0.176
  438DIO    C2424506  -0.252   5.870   0.158
  438DIO    C2524507  -0.342   5.753   0.198
  438DIO    C2624508  -0.381   5.662   0.083
  438DIO     H124509   1.340   5.957   0.135
  438DIO     H224510   1.299   5.550  -0.034
  438DIO     H324511   1.122   5.572   0.186
  438DIO     H424512   0.870   5.590   0.210
  438DIO     H524513   0.871   5.966  -0.014
  438DIO     H624514   0.262   5.723   0.321
  438DIO     H724515   0.250   6.114   0.121
  438DIO     H824516   0.093   5.987   0.356
  438DIO     H924517   0.057   5.708   0.119
  438DIO    H1024518  -0.083   5.653   0.209
  438DIO    H1124519  -0.141   5.779  -0.005
  438DIO    H1224520  -0.099   6.029   0.001
  438DIO    H1324521   0.048   5.933  -0.007
  438DIO    H1424522  -0.232   5.930   0.247
  438DIO    H1524523  -0.308   5.935   0.089
  438DIO    H1624524  -0.295   5.694   0.278
  438DIO    H1724525  -0.434   5.795   0.242
  438DIO    H1824526  -0.425   5.719   0.001
  438DIO    H1924527  -0.294   5.607   0.045
  438DIO    H2024528  -0.454   5.588   0.117
  439DIO     F124529   2.860   3.506   0.582
  439DIO     C124530   2.782   3.582   0.662
  439DIO     C224531   2.638   3.578   0.645
  439DIO     C324532   2.549   3.661   0.730
  439DIO     C424533   2.615   3.745   0.833
  439DIO     C524534   2.759   3.747   0.847
  439DIO     F224535   2.815   3.821   0.945
  439DIO     C624536   2.843   3.665   0.763
  439DIO     F324537   2.977   3.669   0.777
  439DIO     C724538   2.403   3.659   0.714
  439DIO     C824539   2.326   3.785   0.701
  439DIO     C924540   2.181   3.783   0.686
  439DIO    C1024541   2.109   3.658   0.693
  439DIO    C1124542   2.181   3.532   0.698
  439DIO    C1224543   2.325   3.534   0.711
  439DIO     F424544   2.390   3.416   0.721
  439DIO     O124545   1.976   3.662   0.654
  439DIO    C1324546   1.882   3.580   0.715
  439DIO     O224547   1.881   3.517   0.824
  439DIO    C1424548   1.753   3.581   0.646
  439DIO    C1524549   1.686   3.707   0.606
  439DIO     F524550   1.749   3.825   0.626
  439DIO    C1624551   1.556   3.711   0.544
  439DIO    C1724552   1.480   3.588   0.523
  439DIO    C1824553   1.549   3.461   0.545
  439DIO    C1924554   1.680   3.458   0.607
  439DIO     F624555   1.743   3.338   0.611
  439DIO    C2024556   1.339   3.591   0.468
  439DIO     O324557   1.269   3.713   0.495
  439DIO    C2124558   1.226   3.723   0.630
  439DIO    C2224559   1.137   3.605   0.668
  439DIO    C2324560   1.218   3.478   0.640
  439DIO     O424561   1.262   3.476   0.504
  439DIO    C2424562   1.004   3.602   0.589
  439DIO    C2524563   0.913   3.724   0.605
  439DIO    C2624564   0.875   3.753   0.749
  439DIO     H124565   2.596   3.513   0.570
  439DIO     H224566   2.554   3.800   0.904
  439DIO     H324567   2.377   3.880   0.698
  439DIO     H424568   2.126   3.875   0.668
  439DIO     H524569   2.127   3.439   0.698
  439DIO     H624570   1.518   3.806   0.509
  439DIO     H724571   1.506   3.368   0.511
  439DIO     H824572   1.349   3.586   0.359
  439DIO     H924573   1.312   3.729   0.697
  439DIO    H1024574   1.173   3.818   0.641
  439DIO    H1124575   1.114   3.609   0.775
  439DIO    H1224576   1.157   3.389   0.656
  439DIO    H1324577   1.304   3.471   0.707
  439DIO    H1424578   1.024   3.588   0.482
  439DIO    H1524579   0.948   3.513   0.620
  439DIO    H1624580   0.961   3.813   0.561
  439DIO    H1724581   0.822   3.707   0.547
  439DIO    H1824582   0.831   3.665   0.797
  439DIO    H1924583   0.962   3.786   0.808
  439DIO    H2024584   0.801   3.834   0.753
  440DIO     F124585   3.107   6.264  10.476
  440DIO     C124586   3.029   6.181  10.549
  440DIO     C224587   2.885   6.198  10.546
  440DIO     C324588   2.796   6.111  10.626
  440DIO     C424589   2.862   6.006  10.708
  440DIO     C524590   3.006   5.991  10.709
  440DIO     F224591   3.062   5.892  10.781
  440DIO     C624592   3.090   6.078  10.630
  440DIO     F324593   3.224   6.064  10.633
  440DIO     C724594   2.650   6.127  10.625
  440DIO     C824595   2.573   6.136  10.751
  440DIO     C924596   2.428   6.151  10.750
  440DIO    C1024597   2.356   6.148  10.625
  440DIO    C1124598   2.428   6.146  10.499
  440DIO    C1224599   2.572   6.134  10.500
  440DIO     F424600   2.637   6.127  10.382
  440DIO     O124601   2.223   6.187  10.630
  440DIO    C1324602   2.129   6.128  10.546
  440DIO     O224603   2.128   6.021  10.480
  440DIO    C1424604   2.000   6.197  10.549
  440DIO    C1524605   1.933   6.233  10.676
  440DIO     F524606   1.996   6.211  10.794
  440DIO    C1624607   1.803   6.296  10.682
  440DIO    C1724608   1.727   6.320  10.559
  440DIO    C1824609   1.796   6.301  10.432
  440DIO    C1924610   1.927   6.240  10.427
  440DIO     F624611   1.990   6.239  10.307
  440DIO    C2024612   1.586   6.374  10.564
  440DIO     O324613   1.516   6.344  10.685
  440DIO    C2124614   1.473   6.209  10.692
  440DIO    C2224615   1.384   6.175  10.573
  440DIO    C2324616   1.465   6.206  10.447
  440DIO     O424617   1.509   6.342  10.448
  440DIO    C2424618   1.251   6.254  10.571
  440DIO    C2524619   1.160   6.234  10.693
  440DIO    C2624620   1.122   6.089  10.719
  440DIO     H124621   2.843   6.275  10.483
  440DIO     H224622   2.801   5.933  10.761
  440DIO     H324623   2.624   6.137  10.846
  440DIO     H424624   2.373   6.167  10.842
  440DIO     H524625   2.374   6.149  10.406
  440DIO     H624626   1.765   6.327  10.778
  440DIO     H724627   1.753   6.338  10.340
  440DIO     H824628   1.596   6.484  10.563
  440DIO     H924629   1.559   6.142  10.695
  440DIO    H1024630   1.420   6.195  10.786
  440DIO    H1124631   1.361   6.068  10.574
  440DIO    H1224632   1.404   6.192  10.357
  440DIO    H1324633   1.551   6.139  10.438
  440DIO    H1424634   1.271   6.361  10.561
  440DIO    H1524635   1.195   6.225  10.482
  440DIO    H1624636   1.208   6.276  10.783
  440DIO    H1724637   1.069   6.292  10.677
  440DIO    H1824638   1.078   6.044  10.629
  440DIO    H1924639   1.209   6.029  10.749
  440DIO    H2024640   1.048   6.083  10.799
  441DIO     F124641   2.591   3.440  -0.269
  441DIO     C124642   2.513   3.488  -0.170
  441DIO     C224643   2.369   3.490  -0.187
  441DIO     C324644   2.280   3.544  -0.081
  441DIO     C424645   2.346   3.593   0.042
  441DIO     C524646   2.490   3.591   0.056
  441DIO     F224647   2.546   3.633   0.172
  441DIO     C624648   2.574   3.538  -0.049
  441DIO     F324649   2.708   3.537  -0.034
  441DIO     C724650   2.134   3.547  -0.097
  441DIO     C824651   2.057   3.671  -0.072
  441DIO     C924652   1.912   3.674  -0.087
  441DIO    C1024653   1.840   3.552  -0.117
  441DIO    C1124654   1.912   3.430  -0.149
  441DIO    C1224655   2.056   3.428  -0.137
  441DIO     F424656   2.121   3.313  -0.162
  441DIO     O124657   1.707   3.567  -0.153
  441DIO    C1324658   1.613   3.471  -0.119
  441DIO     O224659   1.612   3.378  -0.034
  441DIO    C1424660   1.484   3.492  -0.185
  441DIO    C1524661   1.417   3.625  -0.185
  441DIO     F524662   1.480   3.732  -0.132
  441DIO    C1624663   1.287   3.647  -0.244
  441DIO    C1724664   1.211   3.535  -0.300
  441DIO    C1824665   1.280   3.408  -0.317
  441DIO    C1924666   1.411   3.386  -0.259
  441DIO     F624667   1.474   3.271  -0.291
  441DIO    C2024668   1.070   3.554  -0.352
  441DIO     O324669   1.000   3.663  -0.290
  441DIO    C2124670   0.957   3.633  -0.158
  441DIO    C2224671   0.868   3.509  -0.157
  441DIO    C2324672   0.949   3.396  -0.222
  441DIO     O424673   0.993   3.434  -0.352
  441DIO    C2424674   0.735   3.529  -0.233
  441DIO    C2524675   0.644   3.641  -0.182
  441DIO    C2624676   0.606   3.627  -0.035
  441DIO     H124677   2.327   3.450  -0.278
  441DIO     H224678   2.285   3.625   0.126
  441DIO     H324679   2.108   3.763  -0.047
  441DIO     H424680   1.857   3.766  -0.077
  441DIO     H524681   1.858   3.341  -0.177
  441DIO     H624682   1.249   3.748  -0.249
  441DIO     H724683   1.237   3.329  -0.377
  441DIO     H824684   1.080   3.583  -0.457
  441DIO     H924685   1.043   3.619  -0.093
  441DIO    H1024686   0.904   3.720  -0.119
  441DIO    H1124687   0.845   3.481  -0.054
  441DIO    H1224688   0.888   3.306  -0.232
  441DIO    H1324689   1.035   3.369  -0.159
  441DIO    H1424690   0.755   3.548  -0.340
  441DIO    H1524691   0.679   3.435  -0.230
  441DIO    H1624692   0.692   3.739  -0.198
  441DIO    H1724693   0.553   3.642  -0.242
  441DIO    H1824694   0.562   3.528  -0.016
  441DIO    H1924695   0.693   3.640   0.030
  441DIO    H2024696   0.532   3.703  -0.008
  442DIO     F124697   7.920   7.867   5.062
  442DIO     C124698   7.843   7.835   4.957
  442DIO     C224699   7.699   7.831   4.974
  442DIO     C324700   7.610   7.794   4.861
  442DIO     C424701   7.675   7.764   4.732
  442DIO     C524702   7.820   7.768   4.718
  442DIO     F224703   7.875   7.744   4.597
  442DIO     C624704   7.903   7.804   4.830
  442DIO     F324705   8.037   7.807   4.816
  442DIO     C724706   7.464   7.788   4.876
  442DIO     C824707   7.386   7.670   4.832
  442DIO     C924708   7.242   7.664   4.847
  442DIO    C1024709   7.169   7.780   4.895
  442DIO    C1124710   7.242   7.895   4.946
  442DIO    C1224711   7.386   7.899   4.934
  442DIO     F424712   7.451   8.010   4.977
  442DIO     O124713   7.037   7.760   4.929
  442DIO    C1324714   6.942   7.860   4.910
  442DIO     O224715   6.942   7.965   4.840
  442DIO    C1424716   6.813   7.828   4.972
  442DIO    C1524717   6.747   7.698   4.952
  442DIO     F524718   6.810   7.600   4.882
  442DIO    C1624719   6.616   7.667   5.006
  442DIO    C1724720   6.540   7.768   5.079
  442DIO    C1824721   6.609   7.891   5.115
  442DIO    C1924722   6.741   7.922   5.061
  442DIO     F624723   6.803   8.031   5.111
  442DIO    C2024724   6.400   7.741   5.127
  442DIO     O324725   6.330   7.643   5.049
  442DIO    C2124726   6.286   7.694   4.923
  442DIO    C2224727   6.197   7.816   4.942
  442DIO    C2324728   6.278   7.918   5.023
  442DIO     O424729   6.322   7.860   5.145
  442DIO    C2424730   6.065   7.785   5.014
  442DIO    C2524731   5.974   7.682   4.945
  442DIO    C2624732   5.936   7.719   4.803
  442DIO     H124733   7.656   7.856   5.070
  442DIO     H224734   7.615   7.746   4.644
  442DIO     H324735   7.438   7.583   4.794
  442DIO     H424736   7.187   7.574   4.822
  442DIO     H524737   7.187   7.979   4.987
  442DIO     H624738   6.578   7.566   4.995
  442DIO     H724739   6.566   7.960   5.187
  442DIO     H824740   6.409   7.697   5.227
  442DIO     H924741   6.373   7.718   4.861
  442DIO    H1024742   6.234   7.613   4.872
  442DIO    H1124743   6.175   7.860   4.844
  442DIO    H1224744   6.217   8.005   5.047
  442DIO    H1324745   6.364   7.954   4.965
  442DIO    H1424746   6.085   7.749   5.116
  442DIO    H1524747   6.008   7.878   5.025
  442DIO    H1624748   6.021   7.583   4.946
  442DIO    H1724749   5.882   7.672   5.005
  442DIO    H1824750   5.892   7.819   4.799
  442DIO    H1924751   6.022   7.716   4.736
  442DIO    H2024752   5.862   7.648   4.764
  443DIO     F124753   1.646   2.715  10.212
  443DIO     C124754   1.568   2.794  10.136
  443DIO     C224755   1.424   2.777  10.140
  443DIO     C324756   1.335   2.861  10.055
  443DIO     C424757   1.401   2.962   9.969
  443DIO     C524758   1.545   2.977   9.967
  443DIO     F224759   1.600   3.073   9.891
  443DIO     C624760   1.629   2.893  10.050
  443DIO     F324761   1.762   2.907  10.047
  443DIO     C724762   1.189   2.845  10.057
  443DIO     C824763   1.112   2.830   9.932
  443DIO     C924764   0.967   2.814   9.933
  443DIO    C1024765   0.894   2.824  10.059
  443DIO    C1124766   0.967   2.831  10.184
  443DIO    C1224767   1.111   2.844  10.183
  443DIO     F424768   1.176   2.856  10.300
  443DIO     O124769   0.762   2.785  10.056
  443DIO    C1324770   0.668   2.847  10.137
  443DIO     O224771   0.667   2.957  10.198
  443DIO    C1424772   0.539   2.778  10.137
  443DIO    C1524773   0.472   2.736  10.011
  443DIO     F524774   0.535   2.753   9.893
  443DIO    C1624775   0.341   2.674  10.009
  443DIO    C1724776   0.266   2.655  10.132
  443DIO    C1824777   0.334   2.679  10.258
  443DIO    C1924778   0.466   2.741  10.260
  443DIO     F624779   0.529   2.747  10.380
  443DIO    C2024780   0.125   2.600  10.130
  443DIO     O324781   0.055   2.625  10.007
  443DIO    C2124782   0.012   2.760   9.995
  443DIO    C2224783  -0.077   2.799  10.112
  443DIO    C2324784   0.003   2.773  10.239
  443DIO     O424785   0.048   2.638  10.244
  443DIO    C2424786  -0.210   2.721  10.117
  443DIO    C2524787  -0.301   2.735   9.994
  443DIO    C2624788  -0.339   2.878   9.962
  443DIO     H124789   1.381   2.703  10.206
  443DIO     H224790   1.340   3.032   9.913
  443DIO     H324791   1.163   2.824   9.837
  443DIO     H424792   0.912   2.795   9.842
  443DIO     H524793   0.912   2.833  10.278
  443DIO     H624794   0.303   2.638   9.914
  443DIO     H724795   0.292   2.647  10.352
  443DIO     H824796   0.135   2.491  10.136
  443DIO     H924797   0.098   2.826   9.988
  443DIO    H1024798  -0.041   2.769   9.899
  443DIO    H1124799  -0.100   2.906  10.106
  443DIO    H1224800  -0.058   2.792  10.328
  443DIO    H1324801   0.090   2.841  10.245
  443DIO    H1424802  -0.190   2.614  10.132
  443DIO    H1524803  -0.267   2.754  10.205
  443DIO    H1624804  -0.253   2.689   9.907
  443DIO    H1724805  -0.393   2.677  10.013
  443DIO    H1824806  -0.383   2.928  10.049
  443DIO    H1924807  -0.253   2.936   9.929
  443DIO    H2024808  -0.413   2.880   9.881
  444DIO     F124809   6.230   7.139   7.379
  444DIO     C124810   6.152   7.210   7.463
  444DIO     C224811   6.008   7.207   7.446
  444DIO     C324812   5.919   7.285   7.535
  444DIO     C424813   5.985   7.363   7.643
  444DIO     C524814   6.129   7.364   7.657
  444DIO     F224815   6.185   7.434   7.759
  444DIO     C624816   6.213   7.288   7.568
  444DIO     F324817   6.347   7.290   7.582
  444DIO     C724818   5.773   7.284   7.519
  444DIO     C824819   5.696   7.410   7.513
  444DIO     C924820   5.551   7.410   7.498
  444DIO    C1024821   5.479   7.284   7.498
  444DIO    C1124822   5.551   7.158   7.497
  444DIO    C1224823   5.695   7.159   7.509
  444DIO     F424824   5.760   7.041   7.513
  444DIO     O124825   5.346   7.290   7.460
  444DIO    C1324826   5.252   7.205   7.516
  444DIO     O224827   5.251   7.136   7.621
  444DIO    C1424828   5.123   7.210   7.447
  444DIO    C1524829   5.056   7.338   7.414
  444DIO     F524830   5.119   7.455   7.440
  444DIO    C1624831   4.926   7.345   7.352
  444DIO    C1724832   4.850   7.223   7.325
  444DIO    C1824833   4.919   7.096   7.340
  444DIO    C1924834   5.050   7.089   7.401
  444DIO     F624835   5.113   6.969   7.398
  444DIO    C2024836   4.709   7.229   7.270
  444DIO     O324837   4.639   7.350   7.303
  444DIO    C2124838   4.596   7.353   7.439
  444DIO    C2224839   4.507   7.233   7.470
  444DIO    C2324840   4.588   7.108   7.435
  444DIO     O424841   4.632   7.112   7.300
  444DIO    C2424842   4.374   7.234   7.391
  444DIO    C2524843   4.283   7.355   7.414
  444DIO    C2624844   4.245   7.376   7.559
  444DIO     H124845   5.966   7.146   7.367
  444DIO     H224846   5.924   7.414   7.717
  444DIO     H324847   5.747   7.505   7.515
  444DIO     H424848   5.496   7.502   7.485
  444DIO     H524849   5.497   7.065   7.491
  444DIO     H624850   4.888   7.442   7.323
  444DIO     H724851   4.876   7.004   7.301
  444DIO     H824852   4.719   7.231   7.161
  444DIO     H924853   4.682   7.355   7.506
  444DIO    H1024854   4.543   7.447   7.455
  444DIO    H1124855   4.484   7.231   7.577
  444DIO    H1224856   4.527   7.018   7.447
  444DIO    H1324857   4.674   7.097   7.502
  444DIO    H1424858   4.394   7.226   7.283
  444DIO    H1524859   4.318   7.143   7.418
  444DIO    H1624860   4.331   7.446   7.375
  444DIO    H1724861   4.192   7.341   7.355
  444DIO    H1824862   4.201   7.286   7.603
  444DIO    H1924863   4.332   7.405   7.620
  444DIO    H2024864   4.171   7.457   7.567
  445DIO     F124865   9.498   0.283   8.696
  445DIO     C124866   9.420   0.286   8.806
  445DIO     C224867   9.276   0.294   8.791
  445DIO     C324868   9.187   0.300   8.909
  445DIO     C424869   9.253   0.295   9.042
  445DIO     C524870   9.397   0.287   9.054
  445DIO     F224871   9.453   0.278   9.177
  445DIO     C624872   9.481   0.282   8.937
  445DIO     F324873   9.615   0.275   8.950
  445DIO     C724874   9.041   0.310   8.896
  445DIO     C824875   8.964   0.412   8.970
  445DIO     C924876   8.819   0.421   8.958
  445DIO    C1024877   8.747   0.322   8.880
  445DIO    C1124878   8.819   0.225   8.801
  445DIO    C1224879   8.963   0.218   8.811
  445DIO     F424880   9.028   0.123   8.740
  445DIO     O124881   8.614   0.351   8.853
  445DIO    C1324882   8.520   0.249   8.845
  445DIO     O224883   8.519   0.130   8.885
  445DIO    C1424884   8.391   0.296   8.793
  445DIO    C1524885   8.324   0.417   8.848
  445DIO     F524886   8.387   0.492   8.940
  445DIO    C1624887   8.194   0.461   8.803
  445DIO    C1724888   8.118   0.382   8.706
  445DIO    C1824889   8.187   0.273   8.639
  445DIO    C1924890   8.318   0.230   8.683
  445DIO     F624891   8.381   0.138   8.606
  445DIO    C2024892   7.977   0.421   8.667
  445DIO     O324893   7.907   0.495   8.768
  445DIO    C2124894   7.864   0.413   8.876
  445DIO    C2224895   7.775   0.300   8.826
  445DIO    C2324896   7.856   0.223   8.721
  445DIO     O424897   7.900   0.311   8.618
  445DIO    C2424898   7.642   0.349   8.765
  445DIO    C2524899   7.551   0.430   8.858
  445DIO    C2624900   7.513   0.357   8.985
  445DIO     H124901   9.234   0.296   8.692
  445DIO     H224902   9.192   0.289   9.132
  445DIO     H324903   9.015   0.486   9.030
  445DIO     H424904   8.764   0.502   9.005
  445DIO     H524905   8.765   0.155   8.739
  445DIO     H624906   8.156   0.555   8.841
  445DIO     H724907   8.144   0.226   8.551
  445DIO     H824908   7.987   0.490   8.582
  445DIO     H924909   7.950   0.373   8.930
  445DIO    H1024910   7.811   0.477   8.947
  445DIO    H1124911   7.752   0.232   8.909
  445DIO    H1224912   7.795   0.145   8.674
  445DIO    H1324913   7.942   0.173   8.767
  445DIO    H1424914   7.662   0.410   8.675
  445DIO    H1524915   7.586   0.262   8.729
  445DIO    H1624916   7.599   0.526   8.883
  445DIO    H1724917   7.460   0.456   8.803
  445DIO    H1824918   7.469   0.259   8.963
  445DIO    H1924919   7.600   0.342   9.051
  445DIO    H2024920   7.439   0.415   9.041
  446DIO     F124921  10.544   0.878  10.512
  446DIO     C124922  10.466   0.987  10.523
  446DIO     C224923  10.322   0.973  10.513
  446DIO     C324924  10.233   1.091  10.523
  446DIO     C424925  10.299   1.222  10.545
  446DIO     C524926  10.443   1.233  10.555
  446DIO     F224927  10.498   1.354  10.579
  446DIO     C624928  10.527   1.116  10.544
  446DIO     F324929  10.660   1.128  10.552
  446DIO     C724930  10.087   1.080  10.511
  446DIO     C824931  10.010   1.166  10.419
  446DIO     C924932   9.865   1.155  10.409
  446DIO    C1024933   9.792   1.065  10.497
  446DIO    C1124934   9.865   0.974  10.583
  446DIO    C1224935  10.009   0.983  10.591
  446DIO     F424936  10.074   0.901  10.676
  446DIO     O124937   9.660   1.043  10.465
  446DIO    C1324938   9.566   1.021  10.565
  446DIO     O224939   9.565   1.044  10.688
  446DIO    C1424940   9.437   0.976  10.511
  446DIO    C1524941   9.370   1.046  10.399
  446DIO     F524942   9.433   1.147  10.336
  446DIO    C1624943   9.239   1.007  10.349
  446DIO    C1724944   9.164   0.901  10.414
  446DIO    C1824945   9.232   0.820  10.514
  446DIO    C1924946   9.364   0.857  10.562
  446DIO     F624947   9.427   0.770  10.644
  446DIO    C2024948   9.023   0.867  10.371
  446DIO     O324949   8.953   0.977  10.311
  446DIO    C2124950   8.910   1.073  10.406
  446DIO    C2224951   8.821   1.009  10.512
  446DIO    C2324952   8.901   0.895  10.574
  446DIO     O424953   8.946   0.804  10.473
  446DIO    C2424954   8.688   0.954  10.455
  446DIO    C2524955   8.597   1.057  10.387
  446DIO    C2624956   8.559   1.174  10.476
  446DIO     H124957  10.279   0.875  10.498
  446DIO     H224958  10.238   1.311  10.563
  446DIO     H324959  10.061   1.236  10.354
  446DIO     H424960   9.810   1.212  10.335
  446DIO     H524961   9.810   0.903  10.644
  446DIO     H624962   9.201   1.057  10.261
  446DIO     H724963   9.190   0.727  10.549
  446DIO     H824964   9.033   0.792  10.291
  446DIO     H924965   8.996   1.121  10.453
  446DIO    H1024966   8.857   1.152  10.352
  446DIO    H1124967   8.798   1.082  10.590
  446DIO    H1224968   8.840   0.838  10.645
  446DIO    H1324969   8.988   0.933  10.630
  446DIO    H1424970   8.708   0.874  10.383
  446DIO    H1524971   8.631   0.908  10.537
  446DIO    H1624972   8.645   1.095  10.295
  446DIO    H1724973   8.505   1.006  10.355
  446DIO    H1824974   8.515   1.139  10.570
  446DIO    H1924975   8.645   1.237  10.500
  446DIO    H2024976   8.485   1.237  10.426
  447DIO     F124977   7.108  10.520  10.143
  447DIO     C124978   7.031  10.613  10.084
  447DIO     C224979   6.887  10.596  10.084
  447DIO     C324980   6.798  10.694  10.019
  447DIO     C424981   6.863  10.811   9.955
  447DIO     C524982   7.008  10.826   9.956
  447DIO     F224983   7.063  10.935   9.901
  447DIO     C624984   7.091  10.727  10.020
  447DIO     F324985   7.225  10.742  10.019
  447DIO     C724986   6.652  10.678  10.017
  447DIO     C824987   6.574  10.689   9.891
  447DIO     C924988   6.430  10.674   9.890
  447DIO    C1024989   6.357  10.658  10.014
  447DIO    C1124990   6.430  10.640  10.139
  447DIO    C1224991   6.574  10.652  10.140
  447DIO     F424992   6.639  10.640  10.258
  447DIO     O124993   6.225  10.620  10.004
  447DIO    C1324994   6.130  10.665  10.096
  447DIO     O224995   6.130  10.760  10.178
  447DIO    C1424996   6.001  10.597  10.082
  447DIO    C1524997   5.935  10.582   9.950
  447DIO     F524998   5.998  10.622   9.838
  447DIO    C1624999   5.804  10.521   9.935
  447DIO    C1725000   5.728  10.478  10.052
  447DIO    C1825001   5.797  10.476  10.181
  447DIO    C1925002   5.929  10.536  10.195
  447DIO     F625003   5.991  10.517  10.314
  447DIO    C2025004   5.588  10.424  10.039
  447DIO     O325005   5.518  10.473   9.924
  447DIO    C2125006   5.474  10.608   9.939
  447DIO    C2225007   5.385  10.623  10.062
  447DIO    C2325008   5.466  10.572  10.181
  447DIO     O425009   5.510  10.438  10.159
  447DIO    C2425010   5.253  10.545  10.051
  447DIO    C2525011   5.162  10.583   9.933
  447DIO    C2625012   5.124  10.730   9.931
  447DIO     H125013   6.844  10.509  10.134
  447DIO     H225014   6.803  10.891   9.914
  447DIO     H325015   6.626  10.703   9.797
  447DIO     H425016   6.375  10.673   9.797
  447DIO     H525017   6.375  10.622  10.231
  447DIO     H625018   5.766  10.505   9.835
  447DIO     H725019   5.754  10.425  10.266
  447DIO     H825020   5.597  10.316  10.023
  447DIO     H925021   5.561  10.674   9.946
  447DIO    H1025022   5.422  10.636   9.847
  447DIO    H1125023   5.363  10.729  10.078
  447DIO    H1225024   5.405  10.572  10.272
  447DIO    H1325025   5.552  10.637  10.201
  447DIO    H1425026   5.273  10.437  10.044
  447DIO    H1525027   5.196  10.559  10.144
  447DIO    H1625028   5.209  10.556   9.838
  447DIO    H1725029   5.070  10.523   9.940
  447DIO    H1825030   5.080  10.761  10.026
  447DIO    H1925031   5.210  10.794   9.910
  447DIO    H2025032   5.050  10.749   9.852
  448DIO     F125033   5.529   5.069   2.328
  448DIO     C125034   5.452   4.965   2.364
  448DIO     C225035   5.308   4.981   2.367
  448DIO     C325036   5.219   4.870   2.408
  448DIO     C425037   5.284   4.742   2.442
  448DIO     C525038   5.429   4.728   2.438
  448DIO     F225039   5.484   4.608   2.465
  448DIO     C625040   5.512   4.838   2.398
  448DIO     F325041   5.646   4.824   2.396
  448DIO     C725042   5.072   4.885   2.413
  448DIO     C825043   4.995   4.845   2.533
  448DIO     C925044   4.851   4.860   2.538
  448DIO    C1025045   4.778   4.905   2.420
  448DIO    C1125046   4.851   4.952   2.304
  448DIO    C1225047   4.995   4.940   2.300
  448DIO     F425048   5.060   4.979   2.188
  448DIO     O125049   4.646   4.939   2.440
  448DIO    C1325050   4.551   4.917   2.340
  448DIO     O225051   4.550   4.844   2.237
  448DIO    C1425052   4.422   4.980   2.370
  448DIO    C1525053   4.356   4.964   2.501
  448DIO     F525054   4.419   4.897   2.600
  448DIO    C1625055   4.225   5.019   2.530
  448DIO    C1725056   4.149   5.089   2.426
  448DIO    C1825057   4.218   5.121   2.302
  448DIO    C1925058   4.350   5.066   2.274
  448DIO     F625059   4.412   5.112   2.163
  448DIO    C2025060   4.009   5.137   2.452
  448DIO     O325061   3.939   5.063   2.552
  448DIO    C2125062   3.895   4.935   2.506
  448DIO    C2225063   3.806   4.950   2.383
  448DIO    C2325064   3.887   5.028   2.279
  448DIO     O425065   3.931   5.152   2.332
  448DIO    C2425066   3.674   5.023   2.412
  448DIO    C2525067   3.583   4.958   2.517
  448DIO    C2625068   3.544   4.814   2.484
  448DIO     H125069   5.265   5.077   2.339
  448DIO     H225070   5.224   4.654   2.463
  448DIO     H325071   5.047   4.809   2.621
  448DIO     H425072   4.796   4.838   2.628
  448DIO     H525073   4.796   4.991   2.219
  448DIO     H625074   4.187   5.011   2.631
  448DIO     H725075   4.175   5.190   2.231
  448DIO     H825076   4.018   5.239   2.493
  448DIO     H925077   3.982   4.872   2.483
  448DIO    H1025078   3.842   4.886   2.588
  448DIO    H1125079   3.784   4.851   2.342
  448DIO    H1225080   3.826   5.049   2.191
  448DIO    H1325081   3.973   4.969   2.244
  448DIO    H1425082   3.693   5.126   2.444
  448DIO    H1525083   3.617   5.031   2.318
  448DIO    H1625084   3.630   4.962   2.616
  448DIO    H1725085   3.491   5.018   2.525
  448DIO    H1825086   3.501   4.807   2.384
  448DIO    H1925087   3.631   4.748   2.489
  448DIO    H2025088   3.471   4.778   2.556
  449DIO     F125089   6.924   8.099  -0.249
  449DIO     C125090   6.846   8.114  -0.358
  449DIO     C225091   6.702   8.103  -0.345
  449DIO     C325092   6.613   8.116  -0.463
  449DIO     C425093   6.679   8.143  -0.593
  449DIO     C525094   6.823   8.153  -0.604
  449DIO     F225095   6.878   8.181  -0.723
  449DIO     C625096   6.907   8.139  -0.487
  449DIO     F325097   7.041   8.148  -0.498
  449DIO     C725098   6.467   8.105  -0.452
  449DIO     C825099   6.390   8.016  -0.541
  449DIO     C925100   6.245   8.005  -0.530
  449DIO    C1025101   6.172   8.090  -0.438
  449DIO    C1125102   6.245   8.173  -0.343
  449DIO    C1225103   6.389   8.182  -0.352
  449DIO     F425104   6.454   8.264  -0.267
  449DIO     O125105   6.040   8.057  -0.416
  449DIO    C1325106   5.946   8.156  -0.391
  449DIO     O225107   5.945   8.281  -0.411
  449DIO    C1425108   5.817   8.102  -0.348
  449DIO    C1525109   5.750   7.991  -0.421
  449DIO     F525110   5.813   7.932  -0.524
  449DIO    C1625111   5.620   7.941  -0.384
  449DIO    C1725112   5.544   8.002  -0.276
  449DIO    C1825113   5.613   8.100  -0.191
  449DIO    C1925114   5.744   8.149  -0.228
  449DIO     F625115   5.807   8.228  -0.137
  449DIO    C2025116   5.403   7.958  -0.243
  449DIO     O325117   5.333   7.901  -0.355
  449DIO    C2125118   5.290   8.000  -0.448
  449DIO    C2225119   5.201   8.103  -0.380
  449DIO    C2325120   5.282   8.162  -0.264
  449DIO     O425121   5.326   8.059  -0.177
  449DIO    C2425122   5.068   8.045  -0.328
  449DIO    C2525123   4.977   7.980  -0.433
  449DIO    C2625124   4.939   8.073  -0.547
  449DIO     H125125   6.659   8.086  -0.247
  449DIO     H225126   6.618   8.163  -0.681
  449DIO     H325127   6.441   7.953  -0.612
  449DIO     H425128   6.190   7.933  -0.589
  449DIO     H525129   6.191   8.232  -0.271
  449DIO     H625130   5.581   7.854  -0.436
  449DIO     H725131   5.570   8.132  -0.097
  449DIO     H825132   5.413   7.876  -0.171
  449DIO     H925133   5.376   8.048  -0.494
  449DIO    H1025134   5.237   7.948  -0.529
  449DIO    H1125135   5.178   8.184  -0.451
  449DIO    H1225136   5.220   8.231  -0.206
  449DIO    H1325137   5.368   8.219  -0.301
  449DIO    H1425138   5.088   7.970  -0.250
  449DIO    H1525139   5.012   8.125  -0.279
  449DIO    H1625140   5.025   7.890  -0.473
  449DIO    H1725141   4.886   7.946  -0.383
  449DIO    H1825142   4.895   8.166  -0.509
  449DIO    H1925143   5.025   8.098  -0.609
  449DIO    H2025144   4.865   8.024  -0.612
  450DIO     F125145   9.194   9.144   4.532
  450DIO     C125146   9.116   9.038   4.562
  450DIO     C225147   8.972   9.055   4.566
  450DIO     C325148   8.883   8.941   4.600
  450DIO     C425149   8.949   8.811   4.628
  450DIO     C525150   9.093   8.798   4.623
  450DIO     F225151   9.148   8.677   4.644
  450DIO     C625152   9.177   8.910   4.589
  450DIO     F325153   9.310   8.896   4.586
  450DIO     C725154   8.737   8.956   4.606
  450DIO     C825155   8.660   8.910   4.724
  450DIO     C925156   8.515   8.924   4.730
  450DIO    C1025157   8.442   8.975   4.615
  450DIO    C1125158   8.515   9.029   4.501
  450DIO    C1225159   8.659   9.017   4.497
  450DIO     F425160   8.724   9.062   4.387
  450DIO     O125161   8.310   9.008   4.636
  450DIO    C1325162   8.216   8.992   4.535
  450DIO     O225163   8.215   8.924   4.429
  450DIO    C1425164   8.086   9.053   4.568
  450DIO    C1525165   8.020   9.030   4.699
  450DIO     F525166   8.083   8.958   4.795
  450DIO    C1625167   7.889   9.084   4.731
  450DIO    C1725168   7.814   9.158   4.631
  450DIO    C1825169   7.882   9.197   4.508
  450DIO    C1925170   8.014   9.144   4.477
  450DIO     F625171   8.076   9.196   4.369
  450DIO    C2025172   7.673   9.206   4.659
  450DIO     O325173   7.603   9.126   4.755
  450DIO    C2125174   7.559   9.001   4.702
  450DIO    C2225175   7.471   9.022   4.580
  450DIO    C2325176   7.551   9.106   4.480
  450DIO     O425177   7.596   9.227   4.540
  450DIO    C2425178   7.338   9.094   4.613
  450DIO    C2525179   7.247   9.023   4.714
  450DIO    C2625180   7.209   8.882   4.674
  450DIO     H125181   8.929   9.152   4.543
  450DIO     H225182   8.888   8.723   4.644
  450DIO     H325183   8.711   8.869   4.810
  450DIO     H425184   8.460   8.898   4.819
  450DIO     H525185   8.460   9.072   4.418
  450DIO     H625186   7.851   9.070   4.831
  450DIO     H725187   7.839   9.270   4.441
  450DIO     H825188   7.683   9.305   4.705
  450DIO     H925189   7.646   8.940   4.676
  450DIO    H1025190   7.507   8.948   4.781
  450DIO    H1125191   7.448   8.925   4.534
  450DIO    H1225192   7.490   9.132   4.393
  450DIO    H1325193   7.637   9.049   4.443
  450DIO    H1425194   7.358   9.195   4.651
  450DIO    H1525195   7.281   9.107   4.520
  450DIO    H1625196   7.294   9.022   4.813
  450DIO    H1725197   7.155   9.082   4.725
  450DIO    H1825198   7.165   8.879   4.574
  450DIO    H1925199   7.295   8.815   4.675
  450DIO    H2025200   7.135   8.841   4.744
  451DIO     F125201   8.531   9.006   0.020
  451DIO     C125202   8.453   9.006   0.130
  451DIO     C225203   8.309   9.014   0.115
  451DIO     C325204   8.220   9.017   0.233
  451DIO     C425205   8.286   9.009   0.366
  451DIO     C525206   8.430   9.000   0.378
  451DIO     F225207   8.485   8.988   0.500
  451DIO     C625208   8.514   8.998   0.260
  451DIO     F325209   8.648   8.991   0.273
  451DIO     C725210   8.074   9.027   0.221
  451DIO     C825211   7.997   9.128   0.297
  451DIO     C925212   7.852   9.137   0.285
  451DIO    C1025213   7.779   9.040   0.205
  451DIO    C1125214   7.852   8.945   0.123
  451DIO    C1225215   7.996   8.937   0.133
  451DIO     F425216   8.061   8.845   0.060
  451DIO     O125217   7.647   9.070   0.179
  451DIO    C1325218   7.553   8.968   0.167
  451DIO     O225219   7.552   8.848   0.204
  451DIO    C1425220   7.424   9.016   0.117
  451DIO    C1525221   7.357   9.136   0.175
  451DIO     F525222   7.420   9.209   0.269
  451DIO    C1625223   7.227   9.181   0.131
  451DIO    C1725224   7.151   9.105   0.032
  451DIO    C1825225   7.220   8.997  -0.038
  451DIO    C1925226   7.351   8.953   0.005
  451DIO     F625227   7.414   8.863  -0.074
  451DIO    C2025228   7.010   9.145  -0.006
  451DIO     O325229   6.940   9.216   0.097
  451DIO    C2125230   6.897   9.131   0.203
  451DIO    C2225231   6.808   9.019   0.150
  451DIO    C2325232   6.889   8.946   0.043
  451DIO     O425233   6.933   9.036  -0.058
  451DIO    C2425234   6.675   9.070   0.090
  451DIO    C2525235   6.584   9.149   0.185
  451DIO    C2625236   6.546   9.072   0.311
  451DIO     H125237   8.266   9.019   0.015
  451DIO     H225238   8.225   9.000   0.456
  451DIO     H325239   8.048   9.200   0.359
  451DIO     H425240   7.797   9.216   0.334
  451DIO     H525241   7.798   8.877   0.059
  451DIO     H625242   7.188   9.274   0.171
  451DIO     H725243   7.177   8.952  -0.126
  451DIO     H825244   7.020   9.216  -0.088
  451DIO     H925245   6.983   9.090   0.256
  451DIO    H1025246   6.844   9.193   0.276
  451DIO    H1125247   6.785   8.949   0.231
  451DIO    H1225248   6.827   8.869  -0.006
  451DIO    H1325249   6.975   8.894   0.087
  451DIO    H1425250   6.695   9.134   0.003
  451DIO    H1525251   6.619   8.984   0.052
  451DIO    H1625252   6.632   9.244   0.213
  451DIO    H1725253   6.493   9.175   0.131
  451DIO    H1825254   6.502   8.975   0.286
  451DIO    H1925255   6.632   9.055   0.376
  451DIO    H2025256   6.472   9.129   0.368
  452DIO     F125257   4.533   9.735   9.016
  452DIO     C125258   4.456   9.653   9.090
  452DIO     C225259   4.312   9.670   9.087
  452DIO     C325260   4.223   9.584   9.168
  452DIO     C425261   4.288   9.480   9.251
  452DIO     C525262   4.433   9.466   9.253
  452DIO     F225263   4.488   9.367   9.326
  452DIO     C625264   4.516   9.551   9.172
  452DIO     F325265   4.650   9.538   9.176
  452DIO     C725266   4.077   9.600   9.167
  452DIO     C825267   3.999   9.611   9.293
  452DIO     C925268   3.855   9.626   9.292
  452DIO    C1025269   3.782   9.621   9.166
  452DIO    C1125270   3.855   9.618   9.040
  452DIO    C1225271   3.999   9.605   9.042
  452DIO     F425272   4.064   9.597   8.924
  452DIO     O125273   3.650   9.660   9.171
  452DIO    C1325274   3.555   9.600   9.088
  452DIO     O225275   3.555   9.492   9.023
  452DIO    C1425276   3.426   9.670   9.090
  452DIO    C1525277   3.360   9.707   9.217
  452DIO     F525278   3.423   9.686   9.334
  452DIO    C1625279   3.229   9.770   9.221
  452DIO    C1725280   3.153   9.792   9.099
  452DIO    C1825281   3.222   9.772   8.972
  452DIO    C1925282   3.354   9.711   8.967
  452DIO     F625283   3.416   9.708   8.848
  452DIO    C2025284   3.013   9.847   9.102
  452DIO     O325285   2.943   9.818   9.224
  452DIO    C2125286   2.899   9.683   9.232
  452DIO    C2225287   2.810   9.647   9.114
  452DIO    C2325288   2.891   9.677   8.988
  452DIO     O425289   2.935   9.813   8.987
  452DIO    C2425290   2.678   9.726   9.111
  452DIO    C2525291   2.587   9.708   9.234
  452DIO    C2625292   2.549   9.564   9.261
  452DIO     H125293   4.269   9.747   9.023
  452DIO     H225294   4.228   9.408   9.305
  452DIO     H325295   4.051   9.613   9.388
  452DIO     H425296   3.800   9.643   9.383
  452DIO     H525297   3.800   9.619   8.947
  452DIO     H625298   3.191   9.803   9.317
  452DIO     H725299   3.179   9.807   8.879
  452DIO     H825300   3.022   9.956   9.100
  452DIO     H925301   2.986   9.617   9.237
  452DIO    H1025302   2.847   9.671   9.327
  452DIO    H1125303   2.788   9.540   9.116
  452DIO    H1225304   2.830   9.662   8.898
  452DIO    H1325305   2.977   9.610   8.979
  452DIO    H1425306   2.698   9.834   9.100
  452DIO    H1525307   2.621   9.696   9.022
  452DIO    H1625308   2.634   9.751   9.323
  452DIO    H1725309   2.495   9.766   9.217
  452DIO    H1825310   2.505   9.517   9.172
  452DIO    H1925311   2.635   9.504   9.292
  452DIO    H2025312   2.475   9.559   9.342
  453DIO     F125313   9.230   7.389   1.975
  453DIO     C125314   9.152   7.418   2.081
  453DIO     C225315   9.008   7.423   2.064
  453DIO     C325316   8.919   7.457   2.178
  453DIO     C425317   8.985   7.484   2.308
  453DIO     C525318   9.129   7.479   2.322
  453DIO     F225319   9.184   7.499   2.443
  453DIO     C625320   9.213   7.446   2.209
  453DIO     F325321   9.346   7.442   2.223
  453DIO     C725322   8.773   7.463   2.163
  453DIO     C825323   8.696   7.580   2.210
  453DIO     C925324   8.551   7.586   2.196
  453DIO    C1025325   8.478   7.472   2.144
  453DIO    C1125326   8.551   7.358   2.090
  453DIO    C1225327   8.695   7.353   2.102
  453DIO     F425328   8.760   7.244   2.056
  453DIO     O125329   8.346   7.493   2.111
  453DIO    C1325330   8.252   7.392   2.127
  453DIO     O225331   8.251   7.285   2.194
  453DIO    C1425332   8.123   7.425   2.066
  453DIO    C1525333   8.056   7.555   2.090
  453DIO     F525334   8.119   7.651   2.162
  453DIO    C1625335   7.925   7.588   2.036
  453DIO    C1725336   7.850   7.488   1.961
  453DIO    C1825337   7.918   7.366   1.921
  453DIO    C1925338   8.050   7.335   1.974
  453DIO     F625339   8.113   7.227   1.922
  453DIO    C2025340   7.709   7.516   1.914
  453DIO     O325341   7.639   7.612   1.994
  453DIO    C2125342   7.596   7.559   2.118
  453DIO    C2225343   7.507   7.437   2.097
  453DIO    C2325344   7.587   7.338   2.013
  453DIO     O425345   7.632   7.398   1.892
  453DIO    C2425346   7.374   7.470   2.025
  453DIO    C2525347   7.283   7.571   2.097
  453DIO    C2625348   7.245   7.530   2.238
  453DIO     H125349   8.965   7.401   1.967
  453DIO     H225350   8.924   7.499   2.397
  453DIO     H325351   8.747   7.666   2.251
  453DIO     H425352   8.496   7.675   2.222
  453DIO     H525353   8.496   7.275   2.047
  453DIO     H625354   7.887   7.688   2.050
  453DIO     H725355   7.876   7.299   1.848
  453DIO     H825356   7.719   7.563   1.815
  453DIO     H925357   7.682   7.533   2.180
  453DIO    H1025358   7.543   7.638   2.172
  453DIO    H1125359   7.484   7.391   2.194
  453DIO    H1225360   7.526   7.251   1.986
  453DIO    H1325361   7.674   7.300   2.069
  453DIO    H1425362   7.394   7.508   1.924
  453DIO    H1525363   7.317   7.377   2.012
  453DIO    H1625364   7.331   7.670   2.099
  453DIO    H1725365   7.191   7.582   2.037
  453DIO    H1825366   7.201   7.430   2.239
  453DIO    H1925367   7.331   7.531   2.305
  453DIO    H2025368   7.171   7.600   2.278
  454DIO     F125369   4.235   7.510   4.132
  454DIO     C125370   4.157   7.404   4.102
  454DIO     C225371   4.013   7.415   4.114
  454DIO     C325372   3.924   7.301   4.085
  454DIO     C425373   3.990   7.175   4.041
  454DIO     C525374   4.134   7.166   4.030
  454DIO     F225375   4.189   7.052   3.985
  454DIO     C625376   4.218   7.280   4.060
  454DIO     F325377   4.351   7.270   4.050
  454DIO     C725378   3.778   7.310   4.098
  454DIO     C825379   3.701   7.210   4.174
  454DIO     C925380   3.556   7.219   4.187
  454DIO    C1025381   3.483   7.322   4.115
  454DIO    C1125382   3.556   7.427   4.045
  454DIO    C1225383   3.700   7.419   4.036
  454DIO     F425384   3.765   7.515   3.966
  454DIO     O125385   3.351   7.339   4.150
  454DIO    C1325386   3.257   7.378   4.056
  454DIO     O225387   3.256   7.375   3.930
  454DIO    C1425388   3.128   7.413   4.116
  454DIO    C1525389   3.061   7.325   4.215
  454DIO     F525390   3.124   7.214   4.260
  454DIO    C1625391   2.930   7.355   4.270
  454DIO    C1725392   2.855   7.470   4.224
  454DIO    C1825393   2.923   7.567   4.139
  454DIO    C1925394   3.055   7.538   4.085
  454DIO     F625395   3.118   7.638   4.020
  454DIO    C2025396   2.714   7.496   4.272
  454DIO     O325397   2.644   7.378   4.313
  454DIO    C2125398   2.601   7.299   4.203
  454DIO    C2225399   2.512   7.381   4.110
  454DIO    C2325400   2.592   7.503   4.068
  454DIO     O425401   2.637   7.576   4.182
  454DIO    C2425402   2.379   7.425   4.175
  454DIO    C2525403   2.288   7.312   4.225
  454DIO    C2625404   2.250   7.211   4.117
  454DIO     H125405   3.970   7.510   4.146
  454DIO     H225406   3.929   7.091   4.009
  454DIO     H325407   3.752   7.130   4.227
  454DIO     H425408   3.501   7.150   4.249
  454DIO     H525409   3.501   7.507   3.997
  454DIO     H625410   2.892   7.291   4.349
  454DIO     H725411   2.881   7.665   4.120
  454DIO     H825412   2.724   7.557   4.363
  454DIO     H925413   2.687   7.260   4.149
  454DIO    H1025414   2.548   7.212   4.243
  454DIO    H1125415   2.489   7.321   4.020
  454DIO    H1225416   2.531   7.571   4.007
  454DIO    H1325417   2.679   7.475   4.006
  454DIO    H1425418   2.399   7.492   4.260
  454DIO    H1525419   2.322   7.484   4.102
  454DIO    H1625420   2.336   7.259   4.308
  454DIO    H1725421   2.196   7.356   4.265
  454DIO    H1825422   2.206   7.262   4.030
  454DIO    H1925423   2.336   7.154   4.083
  454DIO    H2025424   2.176   7.141   4.156
  455DIO     F125425  10.499   9.689   1.463
  455DIO     C125426  10.421   9.784   1.407
  455DIO     C225427  10.277   9.767   1.407
  455DIO     C325428  10.188   9.868   1.345
  455DIO     C425429  10.254   9.987   1.286
  455DIO     C525430  10.398  10.002   1.287
  455DIO     F225431  10.454  10.114   1.236
  455DIO     C625432  10.482   9.901   1.348
  455DIO     F325433  10.616   9.915   1.348
  455DIO     C725434  10.042   9.852   1.343
  455DIO     C825435   9.965   9.868   1.218
  455DIO     C925436   9.820   9.853   1.216
  455DIO    C1025437   9.748   9.832   1.340
  455DIO    C1125438   9.820   9.809   1.463
  455DIO    C1225439   9.964   9.821   1.465
  455DIO     F425440  10.029   9.805   1.582
  455DIO     O125441   9.615   9.795   1.327
  455DIO    C1325442   9.521   9.836   1.421
  455DIO     O225443   9.520   9.928   1.507
  455DIO    C1425444   9.392   9.768   1.404
  455DIO    C1525445   9.325   9.758   1.273
  455DIO     F525446   9.388   9.803   1.162
  455DIO    C1625447   9.195   9.698   1.255
  455DIO    C1725448   9.119   9.650   1.370
  455DIO    C1825449   9.188   9.644   1.499
  455DIO    C1925450   9.319   9.703   1.516
  455DIO     F625451   9.382   9.680   1.633
  455DIO    C2025452   8.978   9.598   1.355
  455DIO     O325453   8.908   9.651   1.242
  455DIO    C2125454   8.865   9.785   1.262
  455DIO    C2225455   8.776   9.795   1.386
  455DIO    C2325456   8.857   9.740   1.503
  455DIO     O425457   8.901   9.607   1.476
  455DIO    C2425458   8.643   9.718   1.372
  455DIO    C2525459   8.552   9.761   1.256
  455DIO    C2625460   8.514   9.908   1.259
  455DIO     H125461  10.235   9.679   1.453
  455DIO     H225462  10.193  10.069   1.248
  455DIO     H325463  10.016   9.885   1.124
  455DIO     H425464   9.765   9.855   1.123
  455DIO     H525465   9.766   9.788   1.555
  455DIO     H625466   9.157   9.686   1.154
  455DIO     H725467   9.145   9.590   1.582
  455DIO     H825468   8.988   9.490   1.335
  455DIO     H925469   8.951   9.851   1.271
  455DIO    H1025470   8.812   9.817   1.172
  455DIO    H1125471   8.753   9.901   1.405
  455DIO    H1225472   8.796   9.736   1.594
  455DIO    H1325473   8.943   9.804   1.525
  455DIO    H1425474   8.663   9.610   1.361
  455DIO    H1525475   8.587   9.729   1.465
  455DIO    H1625476   8.600   9.737   1.160
  455DIO    H1725477   8.461   9.700   1.260
  455DIO    H1825478   8.470   9.935   1.356
  455DIO    H1925479   8.601   9.972   1.241
  455DIO    H2025480   8.440   9.929   1.181
  456DIO     F125481   1.245   1.921   4.217
  456DIO     C125482   1.168   1.915   4.327
  456DIO     C225483   1.024   1.925   4.313
  456DIO     C325484   0.935   1.922   4.432
  456DIO     C425485   1.000   1.906   4.564
  456DIO     C525486   1.145   1.897   4.575
  456DIO     F225487   1.200   1.879   4.696
  456DIO     C625488   1.228   1.901   4.458
  456DIO     F325489   1.362   1.894   4.470
  456DIO     C725490   0.788   1.932   4.419
  456DIO     C825491   0.711   2.029   4.501
  456DIO     C925492   0.567   2.038   4.489
  456DIO    C1025493   0.494   1.946   4.404
  456DIO    C1125494   0.566   1.855   4.317
  456DIO    C1225495   0.711   1.847   4.327
  456DIO     F425496   0.775   1.758   4.249
  456DIO     O125497   0.362   1.977   4.380
  456DIO    C1325498   0.267   1.876   4.363
  456DIO     O225499   0.266   1.754   4.393
  456DIO    C1425500   0.138   1.927   4.315
  456DIO    C1525501   0.072   2.043   4.379
  456DIO     F525502   0.134   2.111   4.477
  456DIO    C1625503  -0.059   2.090   4.338
  456DIO    C1725504  -0.135   2.020   4.235
  456DIO    C1825505  -0.066   1.916   4.160
  456DIO    C1925506   0.066   1.869   4.200
  456DIO     F625507   0.128   1.783   4.117
  456DIO    C2025508  -0.275   2.061   4.199
  456DIO     O325509  -0.345   2.127   4.306
  456DIO    C2125510  -0.389   2.037   4.407
  456DIO    C2225511  -0.478   1.928   4.348
  456DIO    C2325512  -0.397   1.860   4.238
  456DIO     O425513  -0.353   1.955   4.142
  456DIO    C2425514  -0.611   1.982   4.291
  456DIO    C2525515  -0.701   2.055   4.390
  456DIO    C2625516  -0.740   1.972   4.512
  456DIO     H125517   0.981   1.934   4.214
  456DIO     H225518   0.940   1.893   4.653
  456DIO     H325519   0.763   2.097   4.567
  456DIO     H425520   0.511   2.115   4.542
  456DIO     H525521   0.512   1.790   4.250
  456DIO     H625522  -0.097   2.181   4.383
  456DIO     H725523  -0.109   1.875   4.069
  456DIO     H825524  -0.266   2.136   4.120
  456DIO     H925525  -0.302   1.993   4.457
  456DIO    H1025526  -0.442   2.095   4.483
  456DIO    H1125527  -0.500   1.854   4.426
  456DIO    H1225528  -0.458   1.786   4.185
  456DIO    H1325529  -0.311   1.806   4.279
  456DIO    H1425530  -0.591   2.050   4.207
  456DIO    H1525531  -0.667   1.898   4.249
  456DIO    H1625532  -0.654   2.148   4.423
  456DIO    H1725533  -0.793   2.085   4.338
  456DIO    H1825534  -0.784   1.876   4.482
  456DIO    H1925535  -0.653   1.952   4.575
  456DIO    H2025536  -0.813   2.026   4.572
  457DIO     F125537   4.365   9.099   3.084
  457DIO     C125538   4.287   9.028   3.168
  457DIO     C225539   4.143   9.044   3.163
  457DIO     C325540   4.054   8.970   3.255
  457DIO     C425541   4.120   8.877   3.350
  457DIO     C525542   4.264   8.863   3.354
  457DIO     F225543   4.320   8.775   3.439
  457DIO     C625544   4.348   8.938   3.263
  457DIO     F325545   4.482   8.924   3.268
  457DIO     C725546   3.908   8.985   3.251
  457DIO     C825547   3.831   9.013   3.375
  457DIO     C925548   3.686   9.028   3.371
  457DIO    C1025549   3.614   9.006   3.248
  457DIO    C1125550   3.686   8.986   3.123
  457DIO    C1225551   3.830   8.974   3.126
  457DIO     F425552   3.895   8.950   3.010
  457DIO     O125553   3.481   9.045   3.247
  457DIO    C1325554   3.387   8.975   3.172
  457DIO     O225555   3.386   8.859   3.122
  457DIO    C1425556   3.258   9.044   3.166
  457DIO    C1525557   3.191   9.098   3.287
  457DIO     F525558   3.254   9.092   3.406
  457DIO    C1625559   3.061   9.161   3.283
  457DIO    C1725560   2.985   9.167   3.158
  457DIO    C1825561   3.054   9.130   3.035
  457DIO    C1925562   3.185   9.069   3.039
  457DIO     F625563   3.248   9.051   2.920
  457DIO    C2025564   2.844   9.221   3.155
  457DIO     O325565   2.774   9.209   3.279
  457DIO    C2125566   2.731   9.076   3.305
  457DIO    C2225567   2.642   9.025   3.192
  457DIO    C2325568   2.723   9.038   3.063
  457DIO     O425569   2.767   9.173   3.045
  457DIO    C2425570   2.509   9.103   3.180
  457DIO    C2525571   2.418   9.101   3.303
  457DIO    C2625572   2.380   8.961   3.349
  457DIO     H125573   4.101   9.112   3.090
  457DIO     H225574   4.059   8.813   3.413
  457DIO     H325575   3.882   9.027   3.469
  457DIO     H425576   3.631   9.056   3.460
  457DIO     H525577   3.632   8.975   3.031
  457DIO     H625578   3.023   9.206   3.374
  457DIO     H725579   3.011   9.153   2.938
  457DIO     H825580   2.854   9.329   3.138
  457DIO     H925581   2.817   9.011   3.318
  457DIO    H1025582   2.678   9.076   3.401
  457DIO    H1125583   2.619   8.919   3.209
  457DIO    H1225584   2.662   9.011   2.976
  457DIO    H1325585   2.809   8.970   3.064
  457DIO    H1425586   2.529   9.208   3.154
  457DIO    H1525587   2.453   9.061   3.095
  457DIO    H1625588   2.466   9.155   3.386
  457DIO    H1725589   2.327   9.156   3.279
  457DIO    H1825590   2.336   8.903   3.267
  457DIO    H1925591   2.467   8.907   3.388
  457DIO    H2025592   2.306   8.967   3.430
  458DIO     F125593   1.150   7.259   3.924
  458DIO     C125594   1.072   7.306   3.825
  458DIO     C225595   0.928   7.292   3.835
  458DIO     C325596   0.839   7.341   3.727
  458DIO     C425597   0.905   7.406   3.611
  458DIO     C525598   1.049   7.419   3.604
  458DIO     F225599   1.104   7.483   3.499
  458DIO     C625600   1.133   7.370   3.711
  458DIO     F325601   1.266   7.382   3.702
  458DIO     C725602   0.693   7.327   3.734
  458DIO     C825603   0.616   7.269   3.621
  458DIO     C925604   0.471   7.256   3.628
  458DIO    C1025605   0.398   7.308   3.742
  458DIO    C1125606   0.471   7.358   3.858
  458DIO    C1225607   0.615   7.369   3.852
  458DIO     F425608   0.680   7.421   3.958
  458DIO     O125609   0.266   7.270   3.753
  458DIO    C1325610   0.172   7.357   3.808
  458DIO     O225611   0.171   7.481   3.827
  458DIO    C1425612   0.042   7.291   3.832
  458DIO    C1525613  -0.024   7.209   3.728
  458DIO     F525614   0.039   7.184   3.611
  458DIO    C1625615  -0.155   7.149   3.748
  458DIO    C1725616  -0.230   7.175   3.870
  458DIO    C1825617  -0.162   7.241   3.980
  458DIO    C1925618  -0.030   7.300   3.960
  458DIO     F625619   0.032   7.347   4.071
  458DIO    C2025620  -0.371   7.123   3.887
  458DIO     O325621  -0.441   7.103   3.763
  458DIO    C2125622  -0.485   7.225   3.705
  458DIO    C2225623  -0.573   7.303   3.801
  458DIO    C2325624  -0.493   7.323   3.929
  458DIO     O425625  -0.448   7.198   3.981
  458DIO    C2425626  -0.706   7.231   3.833
  458DIO    C2525627  -0.797   7.202   3.713
  458DIO    C2625628  -0.835   7.325   3.633
  458DIO     H125629   0.885   7.245   3.922
  458DIO     H225630   0.844   7.453   3.534
  458DIO     H325631   0.667   7.231   3.534
  458DIO     H425632   0.416   7.206   3.550
  458DIO     H525633   0.416   7.392   3.945
  458DIO     H625634  -0.193   7.083   3.671
  458DIO     H725635  -0.205   7.243   4.079
  458DIO     H825636  -0.361   7.022   3.930
  458DIO     H925637  -0.398   7.285   3.675
  458DIO    H1025638  -0.537   7.201   3.612
  458DIO    H1125639  -0.596   7.401   3.758
  458DIO    H1225640  -0.554   7.371   4.006
  458DIO    H1325641  -0.407   7.388   3.912
  458DIO    H1425642  -0.686   7.136   3.884
  458DIO    H1525643  -0.763   7.292   3.904
  458DIO    H1625644  -0.750   7.129   3.646
  458DIO    H1725645  -0.889   7.154   3.750
  458DIO    H1825646  -0.879   7.402   3.698
  458DIO    H1925647  -0.749   7.369   3.582
  458DIO    H2025648  -0.909   7.299   3.557
  459DIO     F125649   1.228  10.266   0.831
  459DIO     C125650   1.151  10.192   0.749
  459DIO     C225651   1.007  10.196   0.765
  459DIO     C325652   0.918  10.115   0.679
  459DIO     C425653   0.983  10.033   0.574
  459DIO     C525654   1.128  10.032   0.559
  459DIO     F225655   1.183   9.959   0.460
  459DIO     C625656   1.211  10.111   0.646
  459DIO     F325657   1.345  10.108   0.632
  459DIO     C725658   0.771  10.116   0.695
  459DIO     C825659   0.694   9.990   0.704
  459DIO     C925660   0.550   9.991   0.720
  459DIO    C1025661   0.477  10.117   0.715
  459DIO    C1125662   0.550  10.242   0.713
  459DIO    C1225663   0.694  10.241   0.701
  459DIO     F425664   0.759  10.359   0.694
  459DIO     O125665   0.345  10.112   0.754
  459DIO    C1325666   0.250  10.195   0.695
  459DIO     O225667   0.249  10.261   0.588
  459DIO    C1425668   0.121  10.193   0.765
  459DIO    C1525669   0.055  10.065   0.801
  459DIO     F525670   0.118   9.948   0.779
  459DIO    C1625671  -0.076  10.060   0.864
  459DIO    C1725672  -0.152  10.183   0.887
  459DIO    C1825673  -0.083  10.310   0.868
  459DIO    C1925674   0.049  10.315   0.807
  459DIO     F625675   0.111  10.434   0.806
  459DIO    C2025676  -0.292  10.178   0.942
  459DIO     O325677  -0.362  10.057   0.912
  459DIO    C2125678  -0.406  10.050   0.777
  459DIO    C2225679  -0.495  10.169   0.742
  459DIO    C2325680  -0.414  10.295   0.773
  459DIO     O425681  -0.370  10.294   0.909
  459DIO    C2425682  -0.627  10.170   0.821
  459DIO    C2525683  -0.718  10.048   0.802
  459DIO    C2625684  -0.757  10.022   0.657
  459DIO     H125685   0.964  10.258   0.843
  459DIO     H225686   0.923   9.980   0.501
  459DIO     H325687   0.746   9.895   0.706
  459DIO     H425688   0.495   9.899   0.735
  459DIO     H525689   0.495  10.336   0.716
  459DIO     H625690  -0.114   9.964   0.896
  459DIO     H725691  -0.126  10.402   0.904
  459DIO     H825692  -0.283  10.180   1.051
  459DIO     H925693  -0.319  10.046   0.710
  459DIO    H1025694  -0.459   9.955   0.764
  459DIO    H1125695  -0.517  10.167   0.635
  459DIO    H1225696  -0.475  10.384   0.759
  459DIO    H1325697  -0.328  10.304   0.706
  459DIO    H1425698  -0.608  10.181   0.929
  459DIO    H1525699  -0.684  10.260   0.792
  459DIO    H1625700  -0.671   9.959   0.844
  459DIO    H1725701  -0.810  10.064   0.860
  459DIO    H1825702  -0.800  10.112   0.611
  459DIO    H1925703  -0.670   9.992   0.598
  459DIO    H2025704  -0.830   9.942   0.652
  460DIO     F125705   9.254   1.070   9.798
  460DIO     C125706   9.176   0.966   9.836
  460DIO     C225707   9.032   0.983   9.839
  460DIO     C325708   8.944   0.873   9.881
  460DIO     C425709   9.009   0.745   9.918
  460DIO     C525710   9.153   0.731   9.914
  460DIO     F225711   9.209   0.612   9.944
  460DIO     C625712   9.237   0.841   9.872
  460DIO     F325713   9.371   0.827   9.870
  460DIO     C725714   8.797   0.888   9.886
  460DIO     C825715   8.720   0.850  10.007
  460DIO     C925716   8.575   0.864  10.011
  460DIO    C1025717   8.503   0.907   9.893
  460DIO    C1125718   8.575   0.953   9.776
  460DIO    C1225719   8.719   0.940   9.772
  460DIO     F425720   8.784   0.978   9.660
  460DIO     O125721   8.371   0.942   9.912
  460DIO    C1325722   8.276   0.918   9.813
  460DIO     O225723   8.275   0.843   9.712
  460DIO    C1425724   8.147   0.982   9.841
  460DIO    C1525725   8.081   0.968   9.973
  460DIO     F525726   8.143   0.903  10.074
  460DIO    C1625727   7.950   1.024  10.001
  460DIO    C1725728   7.874   1.091   9.896
  460DIO    C1825729   7.943   1.121   9.771
  460DIO    C1925730   8.074   1.066   9.744
  460DIO     F625731   8.137   1.110   9.632
  460DIO    C2025732   7.733   1.140   9.921
  460DIO     O325733   7.664   1.068  10.022
  460DIO    C2125734   7.620   0.940   9.978
  460DIO    C2225735   7.531   0.952   9.855
  460DIO    C2325736   7.612   1.028   9.750
  460DIO     O425737   7.656   1.153   9.801
  460DIO    C2425738   7.398   1.026   9.883
  460DIO    C2525739   7.308   0.962   9.989
  460DIO    C2625740   7.269   0.818   9.959
  460DIO     H125741   8.990   1.078   9.809
  460DIO     H225742   8.948   0.658   9.940
  460DIO     H325743   8.772   0.815  10.095
  460DIO     H425744   8.520   0.845  10.102
  460DIO     H525745   8.521   0.990   9.690
  460DIO     H625746   7.912   1.017  10.102
  460DIO     H725747   7.900   1.190   9.699
  460DIO     H825748   7.743   1.242   9.960
  460DIO     H925749   7.707   0.876   9.957
  460DIO    H1025750   7.567   0.892  10.061
  460DIO    H1125751   7.509   0.852   9.816
  460DIO    H1225752   7.551   1.048   9.661
  460DIO    H1325753   7.698   0.969   9.716
  460DIO    H1425754   7.418   1.129   9.913
  460DIO    H1525755   7.342   1.032   9.789
  460DIO    H1625756   7.355   0.968  10.088
  460DIO    H1725757   7.216   1.022   9.996
  460DIO    H1825758   7.225   0.809   9.859
  460DIO    H1925759   7.356   0.752   9.965
  460DIO    H2025760   7.196   0.783  10.032
  461DIO     F125761   1.861   0.631   4.390
  461DIO     C125762   1.783   0.630   4.280
  461DIO     C225763   1.639   0.622   4.295
  461DIO     C325764   1.550   0.618   4.177
  461DIO     C425765   1.616   0.626   4.044
  461DIO     C525766   1.760   0.634   4.032
  461DIO     F225767   1.816   0.645   3.910
  461DIO     C625768   1.844   0.637   4.149
  461DIO     F325769   1.978   0.644   4.137
  461DIO     C725770   1.404   0.608   4.189
  461DIO     C825771   1.327   0.507   4.114
  461DIO     C925772   1.182   0.498   4.126
  461DIO    C1025773   1.110   0.595   4.205
  461DIO    C1125774   1.182   0.691   4.287
  461DIO    C1225775   1.326   0.699   4.277
  461DIO     F425776   1.391   0.792   4.349
  461DIO     O125777   0.977   0.566   4.232
  461DIO    C1325778   0.883   0.668   4.242
  461DIO     O225779   0.882   0.788   4.205
  461DIO    C1425780   0.754   0.620   4.293
  461DIO    C1525781   0.687   0.500   4.236
  461DIO     F525782   0.750   0.427   4.142
  461DIO    C1625783   0.557   0.455   4.280
  461DIO    C1725784   0.481   0.532   4.378
  461DIO    C1825785   0.550   0.640   4.448
  461DIO    C1925786   0.681   0.684   4.405
  461DIO     F625787   0.744   0.775   4.483
  461DIO    C2025788   0.340   0.493   4.416
  461DIO     O325789   0.270   0.421   4.314
  461DIO    C2125790   0.227   0.505   4.208
  461DIO    C2225791   0.138   0.617   4.260
  461DIO    C2325792   0.219   0.691   4.366
  461DIO     O425793   0.263   0.602   4.468
  461DIO    C2425794   0.005   0.566   4.320
  461DIO    C2525795  -0.086   0.487   4.226
  461DIO    C2625796  -0.124   0.563   4.100
  461DIO     H125797   1.597   0.618   4.394
  461DIO     H225798   1.555   0.634   3.954
  461DIO     H325799   1.378   0.435   4.052
  461DIO     H425800   1.127   0.419   4.077
  461DIO     H525801   1.128   0.760   4.350
  461DIO     H625802   0.519   0.362   4.240
  461DIO     H725803   0.507   0.686   4.536
  461DIO     H825804   0.350   0.422   4.500
  461DIO     H925805   0.313   0.545   4.155
  461DIO    H1025806   0.174   0.442   4.135
  461DIO    H1125807   0.115   0.686   4.178
  461DIO    H1225808   0.158   0.768   4.414
  461DIO    H1325809   0.305   0.742   4.322
  461DIO    H1425810   0.025   0.503   4.408
  461DIO    H1525811  -0.051   0.653   4.357
  461DIO    H1625812  -0.038   0.392   4.198
  461DIO    H1725813  -0.177   0.461   4.280
  461DIO    H1825814  -0.168   0.660   4.124
  461DIO    H1925815  -0.037   0.579   4.035
  461DIO    H2025816  -0.198   0.506   4.042
  462DIO     F125817   8.084   7.850   6.410
  462DIO     C125818   8.007   7.778   6.327
  462DIO     C225819   7.862   7.781   6.344
  462DIO     C325820   7.774   7.702   6.256
  462DIO     C425821   7.839   7.622   6.150
  462DIO     C525822   7.983   7.621   6.135
  462DIO     F225823   8.039   7.550   6.035
  462DIO     C625824   8.067   7.699   6.223
  462DIO     F325825   8.201   7.696   6.209
  462DIO     C725826   7.627   7.703   6.272
  462DIO     C825827   7.550   7.577   6.280
  462DIO     C925828   7.405   7.577   6.295
  462DIO    C1025829   7.333   7.703   6.293
  462DIO    C1125830   7.405   7.829   6.293
  462DIO    C1225831   7.549   7.828   6.280
  462DIO     F425832   7.614   7.946   6.275
  462DIO     O125833   7.201   7.698   6.331
  462DIO    C1325834   7.106   7.782   6.274
  462DIO     O225835   7.105   7.850   6.167
  462DIO    C1425836   6.977   7.778   6.343
  462DIO    C1525837   6.911   7.650   6.377
  462DIO     F525838   6.973   7.533   6.353
  462DIO    C1625839   6.780   7.644   6.440
  462DIO    C1725840   6.704   7.766   6.465
  462DIO    C1825841   6.773   7.894   6.448
  462DIO    C1925842   6.905   7.900   6.387
  462DIO     F625843   6.967   8.019   6.388
  462DIO    C2025844   6.563   7.761   6.520
  462DIO     O325845   6.494   7.640   6.488
  462DIO    C2125846   6.450   7.635   6.353
  462DIO    C2225847   6.361   7.755   6.320
  462DIO    C2325848   6.442   7.880   6.353
  462DIO     O425849   6.486   7.878   6.489
  462DIO    C2425850   6.228   7.755   6.399
  462DIO    C2525851   6.138   7.634   6.378
  462DIO    C2625852   6.099   7.610   6.233
  462DIO     H125853   7.820   7.843   6.422
  462DIO     H225854   7.779   7.570   6.076
  462DIO     H325855   7.602   7.482   6.279
  462DIO     H425856   7.350   7.485   6.309
  462DIO     H525857   7.351   7.922   6.296
  462DIO     H625858   6.742   7.548   6.470
  462DIO     H725859   6.730   7.986   6.486
  462DIO     H825860   6.573   7.761   6.629
  462DIO     H925861   6.537   7.632   6.286
  462DIO    H1025862   6.397   7.541   6.338
  462DIO    H1125863   6.339   7.755   6.213
  462DIO    H1225864   6.381   7.970   6.340
  462DIO    H1325865   6.528   7.890   6.286
  462DIO    H1425866   6.248   7.764   6.507
  462DIO    H1525867   6.172   7.845   6.371
  462DIO    H1625868   6.185   7.543   6.418
  462DIO    H1725869   6.046   7.649   6.436
  462DIO    H1825870   6.055   7.700   6.188
  462DIO    H1925871   6.186   7.580   6.173
  462DIO    H2025872   6.026   7.529   6.226
  463DIO     F125873   5.543  -0.834   7.008
  463DIO     C125874   5.466  -0.794   7.111
  463DIO     C225875   5.322  -0.791   7.094
  463DIO     C325876   5.233  -0.746   7.204
  463DIO     C425877   5.298  -0.706   7.331
  463DIO     C525878   5.443  -0.710   7.345
  463DIO     F225879   5.498  -0.677   7.463
  463DIO     C625880   5.526  -0.754   7.236
  463DIO     F325881   5.660  -0.756   7.250
  463DIO     C725882   5.086  -0.741   7.188
  463DIO     C825883   5.009  -0.620   7.223
  463DIO     C925884   4.865  -0.616   7.209
  463DIO    C1025885   4.792  -0.735   7.169
  463DIO    C1125886   4.865  -0.853   7.126
  463DIO    C1225887   5.009  -0.857   7.138
  463DIO     F425888   5.074  -0.970   7.104
  463DIO     O125889   4.660  -0.717   7.134
  463DIO    C1325890   4.565  -0.816   7.160
  463DIO     O225891   4.564  -0.915   7.237
  463DIO    C1425892   4.436  -0.789   7.096
  463DIO    C1525893   4.370  -0.657   7.106
  463DIO     F525894   4.433  -0.554   7.168
  463DIO    C1625895   4.239  -0.630   7.050
  463DIO    C1725896   4.163  -0.736   6.985
  463DIO    C1825897   4.232  -0.862   6.958
  463DIO    C1925898   4.364  -0.888   7.013
  463DIO     F625899   4.426  -1.001   6.972
  463DIO    C2025900   4.023  -0.713   6.935
  463DIO     O325901   3.953  -0.610   7.005
  463DIO    C2125902   3.909  -0.651   7.134
  463DIO    C2225903   3.820  -0.774   7.125
  463DIO    C2325904   3.901  -0.881   7.052
  463DIO     O425905   3.945  -0.833   6.925
  463DIO    C2425906   3.688  -0.748   7.051
  463DIO    C2525907   3.597  -0.641   7.111
  463DIO    C2625908   3.558  -0.667   7.256
  463DIO     H125909   5.279  -0.823   7.000
  463DIO     H225910   5.238  -0.682   7.417
  463DIO     H325911   5.061  -0.531   7.255
  463DIO     H425912   4.810  -0.524   7.226
  463DIO     H525913   4.810  -0.940   7.091
  463DIO     H625914   4.201  -0.529   7.053
  463DIO     H725915   4.189  -0.936   6.891
  463DIO     H825916   4.032  -0.676   6.832
  463DIO     H925917   3.996  -0.670   7.198
  463DIO    H1025918   3.856  -0.567   7.180
  463DIO    H1125919   3.798  -0.810   7.226
  463DIO    H1225920   3.840  -0.970   7.034
  463DIO    H1325921   3.987  -0.913   7.112
  463DIO    H1425922   3.707  -0.720   6.946
  463DIO    H1525923   3.631  -0.842   7.047
  463DIO    H1625924   3.644  -0.542   7.104
  463DIO    H1725925   3.505  -0.635   7.051
  463DIO    H1825926   3.515  -0.767   7.268
  463DIO    H1925927   3.645  -0.659   7.323
  463DIO    H2025928   3.485  -0.593   7.289
  464DIO     F125929   2.407   7.886   8.651
  464DIO     C125930   2.329   7.910   8.759
  464DIO     C225931   2.185   7.915   8.743
  464DIO     C325932   2.096   7.944   8.857
  464DIO     C425933   2.162   7.965   8.989
  464DIO     C525934   2.306   7.960   9.002
  464DIO     F225935   2.361   7.975   9.124
  464DIO     C625936   2.390   7.932   8.888
  464DIO     F325937   2.523   7.928   8.902
  464DIO     C725938   1.950   7.951   8.843
  464DIO     C825939   1.873   8.066   8.895
  464DIO     C925940   1.728   8.073   8.881
  464DIO    C1025941   1.655   7.961   8.824
  464DIO    C1125942   1.728   7.849   8.765
  464DIO    C1225943   1.872   7.844   8.777
  464DIO     F425944   1.937   7.737   8.726
  464DIO     O125945   1.523   7.983   8.792
  464DIO    C1325946   1.429   7.882   8.804
  464DIO     O225947   1.428   7.772   8.866
  464DIO    C1425948   1.300   7.918   8.744
  464DIO    C1525949   1.233   8.047   8.774
  464DIO     F525950   1.296   8.139   8.850
  464DIO    C1625951   1.102   8.081   8.722
  464DIO    C1725952   1.027   7.985   8.642
  464DIO    C1825953   1.095   7.865   8.597
  464DIO    C1925954   1.227   7.831   8.649
  464DIO     F625955   1.290   7.726   8.592
  464DIO    C2025956   0.886   8.016   8.596
  464DIO     O325957   0.816   8.108   8.681
  464DIO    C2125958   0.773   8.049   8.802
  464DIO    C2225959   0.684   7.928   8.776
  464DIO    C2325960   0.764   7.832   8.687
  464DIO     O425961   0.809   7.898   8.569
  464DIO    C2425962   0.551   7.964   8.706
  464DIO    C2525963   0.460   8.062   8.781
  464DIO    C2625964   0.422   8.015   8.921
  464DIO     H125965   2.142   7.898   8.644
  464DIO     H225966   2.101   7.977   9.078
  464DIO     H325967   1.924   8.150   8.940
  464DIO     H425968   1.673   8.161   8.912
  464DIO     H525969   1.673   7.769   8.718
  464DIO     H625970   1.064   8.181   8.740
  464DIO     H725971   1.053   7.801   8.521
  464DIO     H825972   0.896   8.067   8.500
  464DIO     H925973   0.859   8.020   8.863
  464DIO    H1025974   0.720   8.125   8.860
  464DIO    H1125975   0.661   7.877   8.870
  464DIO    H1225976   0.703   7.747   8.657
  464DIO    H1325977   0.851   7.792   8.742
  464DIO    H1425978   0.571   8.007   8.606
  464DIO    H1525979   0.494   7.872   8.688
  464DIO    H1625980   0.508   8.161   8.788
  464DIO    H1725981   0.368   8.076   8.723
  464DIO    H1825982   0.378   7.915   8.918
  464DIO    H1925983   0.508   8.013   8.988
  464DIO    H2025984   0.348   8.083   8.964
  465DIO     F125985   3.706   1.514   3.230
  465DIO     C125986   3.628   1.619   3.264
  465DIO     C225987   3.484   1.608   3.251
  465DIO     C325988   3.395   1.722   3.285
  465DIO     C425989   3.461   1.845   3.333
  465DIO     C525990   3.605   1.854   3.345
  465DIO     F225991   3.660   1.967   3.394
  465DIO     C625992   3.689   1.741   3.311
  465DIO     F325993   3.822   1.751   3.321
  465DIO     C725994   3.249   1.712   3.271
  465DIO     C825995   3.172   1.816   3.199
  465DIO     C925996   3.027   1.807   3.186
  465DIO    C1025997   2.954   1.701   3.254
  465DIO    C1125998   3.027   1.594   3.319
  465DIO    C1225999   3.171   1.601   3.330
  465DIO     F426000   3.236   1.503   3.396
  465DIO     O126001   2.822   1.686   3.218
  465DIO    C1326002   2.728   1.644   3.311
  465DIO     O226003   2.727   1.642   3.437
  465DIO    C1426004   2.598   1.611   3.250
  465DIO    C1526005   2.532   1.702   3.154
  465DIO     F526006   2.595   1.814   3.113
  465DIO    C1626007   2.401   1.675   3.097
  465DIO    C1726008   2.326   1.557   3.139
  465DIO    C1826009   2.394   1.457   3.220
  465DIO    C1926010   2.526   1.484   3.276
  465DIO     F626011   2.588   1.382   3.337
  465DIO    C2026012   2.185   1.533   3.090
  465DIO     O326013   2.115   1.653   3.054
  465DIO    C2126014   2.071   1.727   3.167
  465DIO    C2226015   1.983   1.643   3.257
  465DIO    C2326016   2.063   1.518   3.294
  465DIO     O426017   2.108   1.450   3.177
  465DIO    C2426018   1.850   1.601   3.190
  465DIO    C2526019   1.759   1.716   3.145
  465DIO    C2626020   1.721   1.812   3.256
  465DIO     H126021   3.441   1.515   3.216
  465DIO     H226022   3.400   1.928   3.369
  465DIO     H326023   3.223   1.897   3.150
  465DIO     H426024   2.972   1.878   3.126
  465DIO     H526025   2.972   1.512   3.365
  465DIO     H626026   2.363   1.741   3.021
  465DIO     H726027   2.351   1.359   3.236
  465DIO     H826028   2.195   1.476   2.997
  465DIO     H926029   2.158   1.765   3.222
  465DIO    H1026030   2.019   1.816   3.130
  465DIO    H1126031   1.960   1.698   3.349
  465DIO    H1226032   2.002   1.449   3.353
  465DIO    H1326033   2.149   1.545   3.357
  465DIO    H1426034   1.870   1.537   3.103
  465DIO    H1526035   1.793   1.539   3.261
  465DIO    H1626036   1.806   1.772   3.063
  465DIO    H1726037   1.667   1.673   3.103
  465DIO    H1826038   1.677   1.758   3.341
  465DIO    H1926039   1.807   1.869   3.292
  465DIO    H2026040   1.647   1.884   3.220
  466DIO     F126041  10.532   5.960   8.631
  466DIO     C126042  10.454   5.969   8.522
  466DIO     C226043  10.310   5.959   8.536
  466DIO     C326044  10.221   5.965   8.417
  466DIO     C426045  10.287   5.984   8.286
  466DIO     C526046  10.431   5.994   8.275
  466DIO     F226047  10.486   6.015   8.154
  466DIO     C626048  10.515   5.986   8.392
  466DIO     F326049  10.648   5.994   8.380
  466DIO     C726050  10.075   5.955   8.429
  466DIO     C826051   9.998   5.860   8.345
  466DIO     C926052   9.853   5.850   8.357
  466DIO    C1026053   9.780   5.940   8.444
  466DIO    C1126054   9.853   6.029   8.533
  466DIO    C1226055   9.997   6.037   8.524
  466DIO     F426056  10.062   6.124   8.604
  466DIO     O126057   9.648   5.909   8.468
  466DIO    C1326058   9.554   6.009   8.487
  466DIO     O226059   9.553   6.132   8.460
  466DIO    C1426060   9.424   5.957   8.533
  466DIO    C1526061   9.358   5.843   8.467
  466DIO     F526062   9.421   5.777   8.367
  466DIO    C1626063   9.227   5.794   8.506
  466DIO    C1726064   9.152   5.862   8.611
  466DIO    C1826065   9.220   5.964   8.689
  466DIO    C1926066   9.352   6.011   8.650
  466DIO     F626067   9.414   6.095   8.736
  466DIO    C2026068   9.011   5.820   8.646
  466DIO     O326069   8.941   5.757   8.538
  466DIO    C2126070   8.897   5.849   8.439
  466DIO    C2226071   8.809   5.957   8.500
  466DIO    C2326072   8.889   6.022   8.613
  466DIO     O426073   8.934   5.924   8.706
  466DIO    C2426074   8.676   5.901   8.556
  466DIO    C2526075   8.585   5.830   8.455
  466DIO    C2626076   8.547   5.917   8.336
  466DIO     H126077  10.267   5.947   8.634
  466DIO     H226078  10.226   6.000   8.197
  466DIO     H326079  10.049   5.793   8.278
  466DIO     H426080   9.798   5.775   8.301
  466DIO     H526081   9.798   6.092   8.602
  466DIO     H626082   9.189   5.704   8.459
  466DIO     H726083   9.177   6.002   8.781
  466DIO     H826084   9.021   5.742   8.723
  466DIO     H926085   8.984   5.895   8.390
  466DIO    H1026086   8.845   5.793   8.361
  466DIO    H1126087   8.786   6.033   8.425
  466DIO    H1226088   8.828   6.095   8.667
  466DIO    H1326089   8.975   6.077   8.572
  466DIO    H1426090   8.696   5.831   8.638
  466DIO    H1526091   8.619   5.984   8.600
  466DIO    H1626092   8.632   5.738   8.420
  466DIO    H1726093   8.493   5.800   8.507
  466DIO    H1826094   8.503   6.012   8.368
  466DIO    H1926095   8.633   5.939   8.273
  466DIO    H2026096   8.473   5.865   8.274
  467DIO     F126097   6.051   1.846   1.888
  467DIO     C126098   5.973   1.947   1.932
  467DIO     C226099   5.829   1.937   1.918
  467DIO     C326100   5.740   2.047   1.963
  467DIO     C426101   5.806   2.165   2.024
  467DIO     C526102   5.950   2.172   2.037
  467DIO     F226103   6.005   2.280   2.096
  467DIO     C626104   6.034   2.064   1.991
  467DIO     F326105   6.167   2.073   2.003
  467DIO     C726106   5.594   2.039   1.949
  467DIO     C826107   5.517   2.149   1.887
  467DIO     C926108   5.372   2.142   1.874
  467DIO    C1026109   5.299   2.030   1.930
  467DIO    C1126110   5.372   1.916   1.985
  467DIO    C1226111   5.516   1.923   1.996
  467DIO     F426112   5.581   1.818   2.052
  467DIO     O126113   5.167   2.018   1.893
  467DIO    C1326114   5.073   1.966   1.982
  467DIO     O226115   5.072   1.952   2.107
  467DIO    C1426116   4.944   1.940   1.917
  467DIO    C1526117   4.877   2.040   1.831
  467DIO     F526118   4.940   2.156   1.802
  467DIO    C1626119   4.746   2.019   1.772
  467DIO    C1726120   4.671   1.898   1.802
  467DIO    C1826121   4.739   1.790   1.873
  467DIO    C1926122   4.871   1.812   1.930
  467DIO     F626123   4.934   1.703   1.982
  467DIO    C2026124   4.530   1.879   1.751
  467DIO     O326125   4.460   2.001   1.727
  467DIO    C2126126   4.417   2.064   1.846
  467DIO    C2226127   4.328   1.971   1.928
  467DIO    C2326128   4.408   1.844   1.952
  467DIO     O426129   4.453   1.787   1.829
  467DIO    C2426130   4.195   1.936   1.857
  467DIO    C2526131   4.104   2.055   1.823
  467DIO    C2626132   4.066   2.139   1.944
  467DIO     H126133   5.786   1.848   1.874
  467DIO     H226134   5.745   2.244   2.067
  467DIO     H326135   5.568   2.235   1.846
  467DIO     H426136   5.317   2.219   1.821
  467DIO     H526137   5.317   1.831   2.022
  467DIO     H626138   4.708   2.093   1.703
  467DIO     H726139   4.697   1.691   1.879
  467DIO     H826140   4.540   1.831   1.652
  467DIO     H926141   4.503   2.096   1.905
  467DIO    H1026142   4.364   2.156   1.819
  467DIO    H1126143   4.305   2.017   2.025
  467DIO    H1226144   4.347   1.768   2.003
  467DIO    H1326145   4.495   1.864   2.017
  467DIO    H1426146   4.215   1.882   1.764
  467DIO    H1526147   4.138   1.868   1.921
  467DIO    H1626148   4.152   2.119   1.748
  467DIO    H1726149   4.012   2.016   1.777
  467DIO    H1826150   4.022   2.078   2.023
  467DIO    H1926151   4.152   2.192   1.985
  467DIO    H2026152   3.992   2.215   1.915
  468DIO     F126153   6.260  -0.079   5.361
  468DIO     C126154   6.182   0.026   5.330
  468DIO     C226155   6.038   0.010   5.326
  468DIO     C326156   5.949   0.123   5.290
  468DIO     C426157   6.015   0.253   5.261
  468DIO     C526158   6.159   0.266   5.266
  468DIO     F226159   6.215   0.387   5.243
  468DIO     C626160   6.243   0.154   5.301
  468DIO     F326161   6.377   0.168   5.304
  468DIO     C726162   5.803   0.108   5.284
  468DIO     C826163   5.726   0.153   5.166
  468DIO     C926164   5.581   0.139   5.161
  468DIO    C1026165   5.509   0.089   5.276
  468DIO    C1126166   5.581   0.037   5.391
  468DIO    C1226167   5.725   0.049   5.395
  468DIO     F426168   5.790   0.005   5.505
  468DIO     O126169   5.376   0.056   5.255
  468DIO    C1326170   5.282   0.073   5.356
  468DIO     O226171   5.281   0.142   5.461
  468DIO    C1426172   5.153   0.012   5.324
  468DIO    C1526173   5.087   0.033   5.193
  468DIO     F526174   5.149   0.104   5.096
  468DIO    C1626175   4.956  -0.021   5.162
  468DIO    C1726176   4.880  -0.095   5.262
  468DIO    C1826177   4.949  -0.132   5.385
  468DIO    C1926178   5.080  -0.079   5.416
  468DIO     F626179   5.143  -0.129   5.525
  468DIO    C2026180   4.739  -0.142   5.235
  468DIO     O326181   4.670  -0.064   5.138
  468DIO    C2126182   4.626   0.062   5.189
  468DIO    C2226183   4.537   0.042   5.312
  468DIO    C2326184   4.618  -0.040   5.412
  468DIO     O426185   4.662  -0.162   5.354
  468DIO    C2426186   4.404  -0.030   5.279
  468DIO    C2526187   4.314   0.040   5.177
  468DIO    C2626188   4.275   0.182   5.216
  468DIO     H126189   5.996  -0.087   5.350
  468DIO     H226190   5.954   0.341   5.244
  468DIO     H326191   5.777   0.192   5.080
  468DIO     H426192   5.526   0.164   5.071
  468DIO     H526193   5.527  -0.005   5.474
  468DIO     H626194   4.918  -0.009   5.061
  468DIO     H726195   4.906  -0.204   5.453
  468DIO     H826196   4.749  -0.242   5.190
  468DIO     H926197   4.713   0.124   5.214
  468DIO    H1026198   4.573   0.114   5.109
  468DIO    H1126199   4.514   0.140   5.356
  468DIO    H1226200   4.557  -0.065   5.500
  468DIO    H1326201   4.704   0.017   5.449
  468DIO    H1426202   4.424  -0.131   5.243
  468DIO    H1526203   4.348  -0.041   5.373
  468DIO    H1626204   4.361   0.040   5.079
  468DIO    H1726205   4.222  -0.020   5.167
  468DIO    H1826206   4.231   0.185   5.316
  468DIO    H1926207   4.362   0.249   5.214
  468DIO    H2026208   4.201   0.221   5.145
  469DIO     F126209   9.589   6.570   0.852
  469DIO     C126210   9.512   6.651   0.778
  469DIO     C226211   9.368   6.635   0.781
  469DIO     C326212   9.279   6.720   0.699
  469DIO     C426213   9.344   6.824   0.616
  469DIO     C526214   9.489   6.838   0.614
  469DIO     F226215   9.544   6.936   0.540
  469DIO     C626216   9.572   6.753   0.695
  469DIO     F326217   9.706   6.767   0.692
  469DIO     C726218   9.132   6.704   0.700
  469DIO     C826219   9.055   6.692   0.575
  469DIO     C926220   8.911   6.677   0.576
  469DIO    C1026221   8.838   6.683   0.701
  469DIO    C1126222   8.910   6.687   0.827
  469DIO    C1226223   9.055   6.700   0.826
  469DIO     F426224   9.119   6.709   0.944
  469DIO     O126225   8.706   6.644   0.697
  469DIO    C1326226   8.611   6.705   0.780
  469DIO     O226227   8.610   6.813   0.844
  469DIO    C1426228   8.482   6.635   0.778
  469DIO    C1526229   8.416   6.597   0.652
  469DIO     F526230   8.478   6.617   0.534
  469DIO    C1626231   8.285   6.534   0.647
  469DIO    C1726232   8.209   6.513   0.770
  469DIO    C1826233   8.278   6.534   0.897
  469DIO    C1926234   8.410   6.595   0.901
  469DIO     F626235   8.472   6.598   1.021
  469DIO    C2026236   8.069   6.458   0.767
  469DIO     O326237   7.999   6.485   0.645
  469DIO    C2126238   7.955   6.621   0.636
  469DIO    C2226239   7.866   6.657   0.754
  469DIO    C2326240   7.947   6.628   0.881
  469DIO     O426241   7.991   6.493   0.882
  469DIO    C2426242   7.733   6.578   0.757
  469DIO    C2526243   7.643   6.596   0.635
  469DIO    C2626244   7.604   6.740   0.607
  469DIO     H126245   9.325   6.558   0.845
  469DIO     H226246   9.284   6.895   0.561
  469DIO     H326247   9.107   6.689   0.480
  469DIO     H426248   8.855   6.660   0.485
  469DIO     H526249   8.856   6.686   0.921
  469DIO     H626250   8.247   6.501   0.552
  469DIO     H726251   8.235   6.499   0.990
  469DIO     H826252   8.078   6.349   0.770
  469DIO     H926253   8.042   6.687   0.631
  469DIO    H1026254   7.902   6.632   0.541
  469DIO    H1126255   7.844   6.764   0.751
  469DIO    H1226256   7.886   6.644   0.970
  469DIO    H1326257   8.033   6.696   0.888
  469DIO    H1426258   7.753   6.471   0.769
  469DIO    H1526259   7.677   6.609   0.846
  469DIO    H1626260   7.690   6.552   0.546
  469DIO    H1726261   7.551   6.538   0.652
  469DIO    H1826262   7.560   6.787   0.695
  469DIO    H1926263   7.691   6.799   0.575
  469DIO    H2026264   7.531   6.744   0.526
  470DIO     F126265   1.200   9.682  -0.460
  470DIO     C126266   1.122   9.792  -0.454
  470DIO     C226267   0.978   9.778  -0.464
  470DIO     C326268   0.889   9.896  -0.460
  470DIO     C426269   0.955  10.028  -0.444
  470DIO     C526270   1.099  10.039  -0.434
  470DIO     F226271   1.155  10.161  -0.416
  470DIO     C626272   1.183   9.922  -0.439
  470DIO     F326273   1.317   9.934  -0.432
  470DIO     C726274   0.743   9.884  -0.470
  470DIO     C826275   0.666   9.966  -0.567
  470DIO     C926276   0.521   9.954  -0.577
  470DIO    C1026277   0.449   9.869  -0.484
  470DIO    C1126278   0.521   9.781  -0.394
  470DIO    C1226279   0.665   9.791  -0.386
  470DIO     F426280   0.730   9.713  -0.297
  470DIO     O126281   0.316   9.844  -0.515
  470DIO    C1326282   0.222   9.827  -0.414
  470DIO     O226283   0.221   9.857  -0.292
  470DIO    C1426284   0.093   9.780  -0.465
  470DIO    C1526285   0.027   9.844  -0.581
  470DIO     F526286   0.089   9.943  -0.649
  470DIO    C1626287  -0.104   9.803  -0.629
  470DIO    C1726288  -0.180   9.700  -0.559
  470DIO    C1826289  -0.111   9.624  -0.455
  470DIO    C1926290   0.020   9.664  -0.409
  470DIO     F626291   0.083   9.580  -0.323
  470DIO    C2026292  -0.321   9.664  -0.600
  470DIO     O326293  -0.390   9.771  -0.666
  470DIO    C2126294  -0.434   9.872  -0.575
  470DIO    C2226295  -0.523   9.813  -0.466
  470DIO    C2326296  -0.442   9.702  -0.399
  470DIO     O426297  -0.398   9.606  -0.495
  470DIO    C2426298  -0.656   9.756  -0.521
  470DIO    C2526299  -0.746   9.855  -0.594
  470DIO    C2626300  -0.785   9.976  -0.510
  470DIO     H126301   0.936   9.678  -0.474
  470DIO     H226302   0.894  10.117  -0.430
  470DIO     H326303   0.717  10.032  -0.635
  470DIO     H426304   0.466  10.008  -0.653
  470DIO     H526305   0.467   9.714  -0.329
  470DIO     H626306  -0.142   9.848  -0.720
  470DIO     H726307  -0.154   9.533  -0.415
  470DIO     H826308  -0.311   9.586  -0.676
  470DIO     H926309  -0.347   9.922  -0.531
  470DIO    H1026310  -0.487   9.948  -0.633
  470DIO    H1126311  -0.546   9.890  -0.392
  470DIO    H1226312  -0.503   9.649  -0.325
  470DIO    H1326313  -0.356   9.743  -0.345
  470DIO    H1426314  -0.636   9.672  -0.589
  470DIO    H1526315  -0.712   9.713  -0.437
  470DIO    H1626316  -0.699   9.889  -0.687
  470DIO    H1726317  -0.838   9.803  -0.623
  470DIO    H1826318  -0.829   9.946  -0.415
  470DIO    H1926319  -0.698  10.040  -0.490
  470DIO    H2026320  -0.859  10.037  -0.564
  471DIO     F126321   1.951  10.771   6.439
  471DIO     C126322   1.873  10.747   6.546
  471DIO     C226323   1.729  10.758   6.534
  471DIO     C326324   1.640  10.735   6.650
  471DIO     C426325   1.706  10.698   6.778
  471DIO     C526326   1.850  10.687   6.787
  471DIO     F226327   1.905  10.648   6.904
  471DIO     C626328   1.934  10.711   6.672
  471DIO     F326329   2.067  10.701   6.683
  471DIO     C726330   1.494  10.748   6.640
  471DIO     C826331   1.417  10.829   6.736
  471DIO     C926332   1.272  10.841   6.727
  471DIO    C1026333   1.199  10.764   6.627
  471DIO    C1126334   1.272  10.689   6.526
  471DIO    C1226335   1.416  10.679   6.534
  471DIO     F426336   1.481  10.605   6.443
  471DIO     O126337   1.067  10.798   6.608
  471DIO    C1326338   0.973  10.702   6.575
  471DIO     O226339   0.972  10.576   6.584
  471DIO    C1426340   0.844  10.760   6.536
  471DIO    C1526341   0.777  10.863   6.619
  471DIO     F526342   0.840  10.914   6.727
  471DIO    C1626343   0.646  10.917   6.586
  471DIO    C1726344   0.571  10.865   6.473
  471DIO    C1826345   0.639  10.775   6.381
  471DIO    C1926346   0.771  10.723   6.413
  471DIO     F626347   0.834  10.652   6.316
  471DIO    C2026348   0.430  10.912   6.445
  471DIO     O326349   0.360  10.959   6.561
  471DIO    C2126350   0.317  10.853   6.645
  471DIO    C2226351   0.228  10.755   6.569
  471DIO    C2326352   0.308  10.707   6.448
  471DIO     O426353   0.353  10.817   6.370
  471DIO    C2426354   0.095  10.818   6.522
  471DIO    C2526355   0.004  10.874   6.632
  471DIO    C2626356  -0.034  10.772   6.737
  471DIO     H126357   1.686  10.784   6.438
  471DIO     H226358   1.645  10.670   6.863
  471DIO     H326359   1.468  10.885   6.813
  471DIO     H426360   1.217  10.907   6.792
  471DIO     H526361   1.217  10.636   6.449
  471DIO     H626362   0.608  10.999   6.646
  471DIO     H726363   0.597  10.751   6.285
  471DIO     H826364   0.440  10.999   6.380
  471DIO     H926365   0.403  10.801   6.687
  471DIO    H1026366   0.264  10.897   6.730
  471DIO    H1126367   0.205  10.669   6.633
  471DIO    H1226368   0.247  10.643   6.384
  471DIO    H1326369   0.395  10.647   6.481
  471DIO    H1426370   0.115  10.899   6.450
  471DIO    H1526371   0.038  10.742   6.466
  471DIO    H1626372   0.052  10.960   6.680
  471DIO    H1726373  -0.088  10.912   6.585
  471DIO    H1826374  -0.078  10.682   6.692
  471DIO    H1926375   0.052  10.741   6.797
  471DIO    H2026376  -0.108  10.814   6.806
  472DIO     F126377   2.220   1.077  10.540
  472DIO     C126378   2.142   0.985  10.602
  472DIO     C226379   1.998   1.002  10.601
  472DIO     C326380   1.909   0.905  10.669
  472DIO     C426381   1.975   0.790  10.735
  472DIO     C526382   2.119   0.775  10.734
  472DIO     F226383   2.174   0.667  10.792
  472DIO     C626384   2.203   0.872  10.668
  472DIO     F326385   2.336   0.858  10.669
  472DIO     C726386   1.763   0.921  10.670
  472DIO     C826387   1.686   0.914  10.796
  472DIO     C926388   1.541   0.929  10.797
  472DIO    C1026389   1.468   0.942  10.672
  472DIO    C1126390   1.541   0.957  10.547
  472DIO    C1226391   1.685   0.945  10.546
  472DIO     F426392   1.750   0.954  10.429
  472DIO     O126393   1.336   0.980  10.682
  472DIO    C1326394   1.242   0.933  10.591
  472DIO     O226395   1.241   0.835  10.511
  472DIO    C1426396   1.113   1.001  10.603
  472DIO    C1526397   1.046   1.019  10.734
  472DIO     F526398   1.109   0.981  10.848
  472DIO    C1626399   0.915   1.081  10.748
  472DIO    C1726400   0.840   1.121  10.630
  472DIO    C1826401   0.908   1.120  10.502
  472DIO    C1926402   1.040   1.060  10.488
  472DIO     F626403   1.103   1.075  10.370
  472DIO    C2026404   0.699   1.175  10.642
  472DIO     O326405   0.629   1.129  10.758
  472DIO    C2126406   0.586   0.994  10.746
  472DIO    C2226407   0.497   0.976  10.624
  472DIO    C2326408   0.577   1.024  10.503
  472DIO     O426409   0.622   1.158  10.523
  472DIO    C2426410   0.364   1.054  10.633
  472DIO    C2526411   0.273   1.018  10.751
  472DIO    C2626412   0.235   0.871  10.757
  472DIO     H126413   1.955   1.087  10.549
  472DIO     H226414   1.914   0.711  10.778
  472DIO     H326415   1.737   0.902  10.890
  472DIO     H426416   1.486   0.932  10.890
  472DIO     H526417   1.486   0.972  10.455
  472DIO     H626418   0.877   1.099  10.848
  472DIO     H726419   0.866   1.169  10.415
  472DIO     H826420   0.709   1.283  10.655
  472DIO     H926421   0.672   0.927  10.741
  472DIO    H1026422   0.533   0.967  10.838
  472DIO    H1126423   0.474   0.869  10.611
  472DIO    H1226424   0.516   1.022  10.413
  472DIO    H1326425   0.664   0.958  10.485
  472DIO    H1426426   0.384   1.162  10.637
  472DIO    H1526427   0.307   1.037  10.540
  472DIO    H1626428   0.321   1.047  10.846
  472DIO    H1726429   0.181   1.078  10.744
  472DIO    H1826430   0.191   0.838  10.662
  472DIO    H1926431   0.321   0.808  10.779
  472DIO    H2026432   0.161   0.855  10.836
  473DIO     F126433   4.358   8.681   1.309
  473DIO     C126434   4.280   8.658   1.417
  473DIO     C226435   4.136   8.669   1.404
  473DIO     C326436   4.048   8.647   1.521
  473DIO     C426437   4.113   8.611   1.648
  473DIO     C526438   4.257   8.600   1.658
  473DIO     F226439   4.313   8.563   1.775
  473DIO     C626440   4.341   8.623   1.543
  473DIO     F326441   4.475   8.614   1.554
  473DIO     C726442   3.901   8.660   1.510
  473DIO     C826443   3.824   8.742   1.606
  473DIO     C926444   3.679   8.754   1.596
  473DIO    C1026445   3.607   8.676   1.497
  473DIO    C1126446   3.679   8.600   1.397
  473DIO    C1226447   3.823   8.590   1.405
  473DIO     F426448   3.888   8.515   1.314
  473DIO     O126449   3.475   8.710   1.478
  473DIO    C1326450   3.380   8.613   1.446
  473DIO     O226451   3.379   8.488   1.456
  473DIO    C1426452   3.251   8.671   1.407
  473DIO    C1526453   3.185   8.775   1.488
  473DIO     F526454   3.247   8.827   1.596
  473DIO    C1626455   3.054   8.829   1.455
  473DIO    C1726456   2.978   8.775   1.343
  473DIO    C1826457   3.047   8.685   1.251
  473DIO    C1926458   3.178   8.633   1.284
  473DIO     F626459   3.241   8.561   1.188
  473DIO    C2026460   2.837   8.822   1.314
  473DIO     O326461   2.768   8.870   1.429
  473DIO    C2126462   2.724   8.765   1.515
  473DIO    C2226463   2.635   8.667   1.439
  473DIO    C2326464   2.716   8.617   1.319
  473DIO     O426465   2.760   8.727   1.240
  473DIO    C2426466   2.502   8.729   1.391
  473DIO    C2526467   2.412   8.786   1.501
  473DIO    C2626468   2.373   8.684   1.608
  473DIO     H126469   4.094   8.695   1.308
  473DIO     H226470   4.052   8.584   1.734
  473DIO     H326471   3.876   8.799   1.682
  473DIO     H426472   3.624   8.820   1.661
  473DIO     H526473   3.625   8.547   1.320
  473DIO     H626474   3.016   8.911   1.514
  473DIO     H726475   3.004   8.660   1.155
  473DIO     H826476   2.847   8.909   1.248
  473DIO     H926477   2.811   8.714   1.558
  473DIO    H1026478   2.671   8.810   1.599
  473DIO    H1126479   2.613   8.581   1.504
  473DIO    H1226480   2.655   8.553   1.256
  473DIO    H1326481   2.802   8.558   1.352
  473DIO    H1426482   2.522   8.810   1.319
  473DIO    H1526483   2.446   8.653   1.337
  473DIO    H1626484   2.459   8.873   1.549
  473DIO    H1726485   2.320   8.823   1.454
  473DIO    H1826486   2.329   8.595   1.563
  473DIO    H1926487   2.460   8.655   1.668
  473DIO    H2026488   2.300   8.728   1.676
  474DIO     F126489  10.949  -0.495   6.882
  474DIO     C126490  10.871  -0.385   6.876
  474DIO     C226491  10.727  -0.400   6.868
  474DIO     C326492  10.638  -0.282   6.860
  474DIO     C426493  10.704  -0.149   6.862
  474DIO     C526494  10.848  -0.137   6.870
  474DIO     F226495  10.903  -0.014   6.877
  474DIO     C626496  10.932  -0.254   6.878
  474DIO     F326497  11.065  -0.241   6.884
  474DIO     C726498  10.492  -0.295   6.851
  474DIO     C826499  10.415  -0.224   6.747
  474DIO     C926500  10.270  -0.236   6.738
  474DIO    C1026501  10.197  -0.311   6.838
  474DIO    C1126502  10.270  -0.389   6.938
  474DIO    C1226503  10.414  -0.379   6.944
  474DIO     F426504  10.479  -0.447   7.041
  474DIO     O126505  10.065  -0.339   6.810
  474DIO    C1326506   9.971  -0.345   6.912
  474DIO     O226507   9.970  -0.303   7.031
  474DIO    C1426508   9.842  -0.398   6.866
  474DIO    C1526509   9.775  -0.346   6.745
  474DIO     F526510   9.838  -0.255   6.667
  474DIO    C1626511   9.644  -0.391   6.701
  474DIO    C1726512   9.569  -0.487   6.782
  474DIO    C1826513   9.637  -0.552   6.893
  474DIO    C1926514   9.769  -0.507   6.935
  474DIO     F626515   9.832  -0.582   7.029
  474DIO    C2026516   9.428  -0.527   6.744
  474DIO     O326517   9.358  -0.427   6.668
  474DIO    C2126518   9.315  -0.318   6.748
  474DIO    C2226519   9.226  -0.365   6.862
  474DIO    C2326520   9.306  -0.469   6.941
  474DIO     O426521   9.351  -0.574   6.855
  474DIO    C2426522   9.093  -0.428   6.814
  474DIO    C2526523   9.002  -0.336   6.731
  474DIO    C2626524   8.964  -0.207   6.802
  474DIO     H126525  10.684  -0.500   6.869
  474DIO     H226526  10.643  -0.059   6.867
  474DIO     H326527  10.466  -0.165   6.672
  474DIO     H426528  10.215  -0.191   6.657
  474DIO     H526529  10.215  -0.450   7.009
  474DIO     H626530   9.606  -0.356   6.606
  474DIO     H726531   9.595  -0.638   6.942
  474DIO     H826532   9.438  -0.613   6.677
  474DIO     H926533   9.401  -0.263   6.787
  474DIO    H1026534   9.262  -0.248   6.682
  474DIO    H1126535   9.203  -0.281   6.928
  474DIO    H1226536   9.245  -0.514   7.019
  474DIO    H1326537   9.393  -0.422   6.990
  474DIO    H1426538   9.113  -0.518   6.755
  474DIO    H1526539   9.036  -0.461   6.902
  474DIO    H1626540   9.050  -0.312   6.635
  474DIO    H1726541   8.910  -0.391   6.707
  474DIO    H1826542   8.920  -0.227   6.900
  474DIO    H1926543   9.050  -0.142   6.815
  474DIO    H2026544   8.890  -0.152   6.742
  475DIO     F126545   4.299  -0.729   5.422
  475DIO     C126546   4.221  -0.622   5.448
  475DIO     C226547   4.077  -0.634   5.437
  475DIO     C326548   3.988  -0.519   5.463
  475DIO     C426549   4.054  -0.392   5.504
  475DIO     C526550   4.198  -0.383   5.515
  475DIO     F226551   4.254  -0.267   5.557
  475DIO     C626552   4.282  -0.497   5.488
  475DIO     F326553   4.416  -0.487   5.498
  475DIO     C726554   3.842  -0.529   5.450
  475DIO     C826555   3.765  -0.430   5.371
  475DIO     C926556   3.620  -0.439   5.359
  475DIO    C1026557   3.548  -0.541   5.433
  475DIO    C1126558   3.620  -0.644   5.506
  475DIO    C1226559   3.764  -0.636   5.515
  475DIO     F426560   3.829  -0.729   5.588
  475DIO     O126561   3.415  -0.559   5.399
  475DIO    C1326562   3.321  -0.595   5.494
  475DIO     O226563   3.320  -0.589   5.620
  475DIO    C1426564   3.192  -0.632   5.435
  475DIO    C1526565   3.126  -0.546   5.334
  475DIO     F526566   3.188  -0.437   5.286
  475DIO    C1626567   2.995  -0.577   5.279
  475DIO    C1726568   2.919  -0.692   5.328
  475DIO    C1826569   2.988  -0.787   5.415
  475DIO    C1926570   3.119  -0.756   5.469
  475DIO     F626571   3.182  -0.855   5.537
  475DIO    C2026572   2.778  -0.719   5.281
  475DIO     O326573   2.709  -0.602   5.237
  475DIO    C2126574   2.665  -0.520   5.345
  475DIO    C2226575   2.576  -0.599   5.441
  475DIO    C2326576   2.657  -0.721   5.485
  475DIO     O426577   2.701  -0.797   5.373
  475DIO    C2426578   2.443  -0.645   5.376
  475DIO    C2526579   2.353  -0.533   5.324
  475DIO    C2626580   2.314  -0.430   5.429
  475DIO     H126581   4.035  -0.730   5.408
  475DIO     H226582   3.993  -0.307   5.534
  475DIO     H326583   3.816  -0.352   5.317
  475DIO     H426584   3.565  -0.372   5.295
  475DIO     H526585   3.566  -0.722   5.556
  475DIO     H626586   2.957  -0.516   5.199
  475DIO     H726587   2.945  -0.883   5.437
  475DIO     H826588   2.788  -0.782   5.191
  475DIO     H926589   2.752  -0.479   5.398
  475DIO    H1026590   2.612  -0.434   5.303
  475DIO    H1126591   2.553  -0.538   5.528
  475DIO    H1226592   2.596  -0.787   5.548
  475DIO    H1326593   2.743  -0.690   5.546
  475DIO    H1426594   2.463  -0.714   5.293
  475DIO    H1526595   2.387  -0.702   5.451
  475DIO    H1626596   2.400  -0.483   5.239
  475DIO    H1726597   2.261  -0.579   5.284
  475DIO    H1826598   2.270  -0.478   5.517
  475DIO    H1926599   2.401  -0.372   5.461
  475DIO    H2026600   2.240  -0.361   5.388
  476DIO     F126601  10.586   3.390   4.417
  476DIO     C126602  10.508   3.313   4.339
  476DIO     C226603  10.364   3.317   4.356
  476DIO     C326604  10.275   3.232   4.273
  476DIO     C426605  10.341   3.145   4.173
  476DIO     C526606  10.485   3.142   4.158
  476DIO     F226607  10.540   3.065   4.063
  476DIO     C626608  10.569   3.226   4.241
  476DIO     F326609  10.702   3.222   4.227
  476DIO     C726610  10.129   3.234   4.289
  476DIO     C826611  10.052   3.108   4.306
  476DIO     C926612   9.907   3.110   4.321
  476DIO    C1026613   9.834   3.235   4.310
  476DIO    C1126614   9.907   3.361   4.301
  476DIO    C1226615  10.051   3.359   4.289
  476DIO     F426616  10.116   3.477   4.276
  476DIO     O126617   9.702   3.233   4.349
  476DIO    C1326618   9.608   3.313   4.286
  476DIO     O226619   9.607   3.373   4.175
  476DIO    C1426620   9.479   3.314   4.355
  476DIO    C1526621   9.412   3.189   4.398
  476DIO     F526622   9.475   3.070   4.382
  476DIO    C1626623   9.281   3.187   4.461
  476DIO    C1726624   9.206   3.310   4.478
  476DIO    C1826625   9.274   3.436   4.453
  476DIO    C1926626   9.406   3.438   4.391
  476DIO     F626627   9.469   3.557   4.384
  476DIO    C2026628   9.065   3.309   4.533
  476DIO     O326629   8.995   3.186   4.510
  476DIO    C2126630   8.952   3.172   4.375
  476DIO    C2226631   8.863   3.289   4.334
  476DIO    C2326632   8.943   3.416   4.359
  476DIO     O426633   8.988   3.423   4.494
  476DIO    C2426634   8.730   3.295   4.413
  476DIO    C2526635   8.639   3.172   4.400
  476DIO    C2626636   8.601   3.138   4.257
  476DIO     H126637  10.321   3.384   4.430
  476DIO     H226638  10.280   3.088   4.103
  476DIO     H326639  10.103   3.013   4.312
  476DIO     H426640   9.852   3.019   4.341
  476DIO     H526641   9.852   3.454   4.299
  476DIO     H626642   9.243   3.092   4.498
  476DIO     H726643   9.232   3.530   4.484
  476DIO     H826644   9.075   3.316   4.642
  476DIO     H926645   9.038   3.164   4.308
  476DIO    H1026646   8.899   3.077   4.366
  476DIO    H1126647   8.840   3.282   4.227
  476DIO    H1226648   8.882   3.505   4.339
  476DIO    H1326649   9.030   3.422   4.291
  476DIO    H1426650   8.750   3.311   4.520
  476DIO    H1526651   8.673   3.382   4.379
  476DIO    H1626652   8.687   3.085   4.446
  476DIO    H1726653   8.547   3.191   4.457
  476DIO    H1826654   8.557   3.225   4.206
  476DIO    H1926655   8.687   3.105   4.199
  476DIO    H2026656   8.527   3.057   4.256
  477DIO     F126657  10.966   8.556   1.123
  477DIO     C126658  10.889   8.447   1.109
  477DIO     C226659  10.745   8.460   1.119
  477DIO     C326660  10.656   8.342   1.107
  477DIO     C426661  10.721   8.212   1.081
  477DIO     C526662  10.866   8.201   1.071
  477DIO     F226663  10.921   8.081   1.043
  477DIO     C626664  10.949   8.318   1.084
  477DIO     F326665  11.083   8.306   1.076
  477DIO     C726666  10.509   8.354   1.118
  477DIO     C826667  10.432   8.265   1.208
  477DIO     C926668  10.288   8.276   1.219
  477DIO    C1026669  10.215   8.368   1.133
  477DIO    C1126670  10.287   8.461   1.049
  477DIO    C1226671  10.432   8.452   1.041
  477DIO     F426672  10.496   8.537   0.958
  477DIO     O126673  10.083   8.390   1.166
  477DIO    C1326674   9.988   8.414   1.066
  477DIO     O226675   9.987   8.393   0.942
  477DIO    C1426676   9.859   8.457   1.121
  477DIO    C1526677   9.793   8.385   1.232
  477DIO     F526678   9.855   8.282   1.292
  477DIO    C1626679   9.662   8.422   1.282
  477DIO    C1726680   9.586   8.530   1.220
  477DIO    C1826681   9.655   8.614   1.122
  477DIO    C1926682   9.787   8.577   1.073
  477DIO     F626683   9.849   8.667   0.993
  477DIO    C2026684   9.446   8.563   1.264
  477DIO     O326685   9.376   8.452   1.321
  477DIO    C2126686   9.332   8.358   1.224
  477DIO    C2226687   9.243   8.425   1.119
  477DIO    C2326688   9.324   8.540   1.060
  477DIO     O426689   9.368   8.629   1.163
  477DIO    C2426690   9.110   8.478   1.178
  477DIO    C2526691   9.020   8.373   1.243
  477DIO    C2626692   8.981   8.258   1.151
  477DIO     H126693  10.702   8.558   1.137
  477DIO     H226694  10.661   8.124   1.061
  477DIO     H326695  10.484   8.194   1.271
  477DIO     H426696  10.232   8.217   1.291
  477DIO     H526697  10.233   8.533   0.990
  477DIO     H626698   9.624   8.370   1.369
  477DIO     H726699   9.612   8.707   1.089
  477DIO     H826700   9.455   8.636   1.345
  477DIO     H926701   9.419   8.311   1.176
  477DIO    H1026702   9.279   8.277   1.276
  477DIO    H1126703   9.221   8.353   1.039
  477DIO    H1226704   9.263   8.598   0.991
  477DIO    H1326705   9.410   8.503   1.004
  477DIO    H1426706   9.130   8.556   1.252
  477DIO    H1526707   9.054   8.526   1.097
  477DIO    H1626708   9.067   8.333   1.334
  477DIO    H1726709   8.928   8.423   1.277
  477DIO    H1826710   8.937   8.296   1.058
  477DIO    H1926711   9.068   8.196   1.126
  477DIO    H2026712   8.908   8.194   1.200
  478DIO     F126713   2.174   0.698   6.606
  478DIO     C126714   2.096   0.663   6.711
  478DIO     C226715   1.952   0.676   6.699
  478DIO     C326716   1.863   0.641   6.812
  478DIO     C426717   1.929   0.590   6.935
  478DIO     C526718   2.073   0.578   6.944
  478DIO     F226719   2.128   0.527   7.056
  478DIO     C626720   2.157   0.614   6.832
  478DIO     F326721   2.290   0.603   6.841
  478DIO     C726722   1.717   0.654   6.804
  478DIO     C826723   1.640   0.725   6.908
  478DIO     C926724   1.495   0.738   6.900
  478DIO    C1026725   1.422   0.672   6.793
  478DIO    C1126726   1.495   0.608   6.684
  478DIO    C1226727   1.639   0.597   6.692
  478DIO     F426728   1.704   0.533   6.592
  478DIO     O126729   1.290   0.708   6.778
  478DIO    C1326730   1.196   0.615   6.734
  478DIO     O226731   1.195   0.489   6.730
  478DIO    C1426732   1.066   0.677   6.702
  478DIO    C1526733   1.000   0.771   6.795
  478DIO     F526734   1.063   0.810   6.908
  478DIO    C1626735   0.869   0.829   6.768
  478DIO    C1726736   0.794   0.788   6.650
  478DIO    C1826737   0.862   0.709   6.549
  478DIO    C1926738   0.994   0.653   6.575
  478DIO     F626739   1.056   0.593   6.472
  478DIO    C2026740   0.653   0.838   6.627
  478DIO     O326741   0.583   0.873   6.747
  478DIO    C2126742   0.539   0.758   6.820
  478DIO    C2226743   0.451   0.669   6.734
  478DIO    C2326744   0.531   0.634   6.609
  478DIO     O426745   0.576   0.752   6.543
  478DIO    C2426746   0.318   0.737   6.694
  478DIO    C2526747   0.227   0.781   6.809
  478DIO    C2626748   0.189   0.668   6.903
  478DIO     H126749   1.909   0.712   6.607
  478DIO     H226750   1.868   0.553   7.017
  478DIO     H326751   1.691   0.773   6.990
  478DIO     H426752   1.440   0.796   6.972
  478DIO     H526753   1.440   0.564   6.602
  478DIO     H626754   0.831   0.904   6.836
  478DIO     H726755   0.819   0.695   6.451
  478DIO     H826756   0.663   0.932   6.572
  478DIO     H926757   0.626   0.702   6.857
  478DIO    H1026758   0.487   0.794   6.909
  478DIO    H1126759   0.428   0.577   6.788
  478DIO    H1226760   0.470   0.577   6.538
  478DIO    H1326761   0.617   0.571   6.635
  478DIO    H1426762   0.338   0.825   6.631
  478DIO    H1526763   0.261   0.667   6.630
  478DIO    H1626764   0.274   0.861   6.866
  478DIO    H1726765   0.135   0.823   6.767
  478DIO    H1826766   0.145   0.584   6.848
  478DIO    H1926767   0.275   0.631   6.959
  478DIO    H2026768   0.115   0.703   6.976
  479DIO     F126769  10.974   9.054   6.660
  479DIO     C126770  10.897   9.093   6.557
  479DIO     C226771  10.753   9.080   6.567
  479DIO     C326772  10.664   9.119   6.456
  479DIO     C426773  10.729   9.174   6.335
  479DIO     C526774  10.874   9.186   6.326
  479DIO     F226775  10.929   9.241   6.216
  479DIO     C626776  10.957   9.146   6.437
  479DIO     F326777  11.091   9.157   6.428
  479DIO     C726778  10.517   9.105   6.464
  479DIO     C826779  10.440   9.038   6.357
  479DIO     C926780  10.296   9.025   6.365
  479DIO    C1026781  10.223   9.087   6.474
  479DIO    C1126782  10.295   9.147   6.585
  479DIO    C1226783  10.440   9.158   6.578
  479DIO     F426784  10.504   9.219   6.679
  479DIO     O126785  10.091   9.051   6.488
  479DIO    C1326786   9.996   9.142   6.535
  479DIO     O226787   9.995   9.267   6.543
  479DIO    C1426788   9.867   9.079   6.564
  479DIO    C1526789   9.801   8.988   6.468
  479DIO     F526790   9.863   8.953   6.354
  479DIO    C1626791   9.670   8.930   6.493
  479DIO    C1726792   9.594   8.966   6.612
  479DIO    C1826793   9.663   9.041   6.716
  479DIO    C1926794   9.795   9.098   6.692
  479DIO     F626795   9.857   9.154   6.798
  479DIO    C2026796   9.454   8.915   6.634
  479DIO     O326797   9.384   8.885   6.513
  479DIO    C2126798   9.340   9.002   6.444
  479DIO    C2226799   9.251   9.088   6.533
  479DIO    C2326800   9.332   9.118   6.659
  479DIO     O426801   9.376   8.998   6.721
  479DIO    C2426802   9.118   9.018   6.571
  479DIO    C2526803   9.028   8.979   6.454
  479DIO    C2626804   8.989   9.095   6.364
  479DIO     H126805  10.710   9.040   6.659
  479DIO     H226806  10.669   9.213   6.254
  479DIO     H326807  10.492   8.993   6.273
  479DIO     H426808  10.240   8.969   6.291
  479DIO     H526809  10.241   9.189   6.669
  479DIO     H626810   9.632   8.857   6.423
  479DIO     H726811   9.620   9.052   6.815
  479DIO     H826812   9.463   8.819   6.686
  479DIO     H926813   9.427   9.059   6.409
  479DIO    H1026814   9.287   8.969   6.354
  479DIO    H1126815   9.229   9.182   6.482
  479DIO    H1226816   9.271   9.173   6.732
  479DIO    H1326817   9.418   9.182   6.636
  479DIO    H1426818   9.138   8.928   6.630
  479DIO    H1526819   9.062   9.086   6.637
  479DIO    H1626820   9.075   8.900   6.394
  479DIO    H1726821   8.936   8.935   6.495
  479DIO    H1826822   8.945   9.177   6.422
  479DIO    H1926823   9.076   9.134   6.309
  479DIO    H2026824   8.916   9.062   6.290
  480DIO     F126825  10.972   3.266   8.548
  480DIO     C126826  10.894   3.167   8.596
  480DIO     C226827  10.750   3.184   8.597
  480DIO     C326828  10.661   3.079   8.651
  480DIO     C426829  10.727   2.955   8.701
  480DIO     C526830  10.871   2.941   8.699
  480DIO     F226831  10.926   2.826   8.742
  480DIO     C626832  10.955   3.046   8.646
  480DIO     F326833  11.088   3.032   8.645
  480DIO     C726834  10.515   3.094   8.655
  480DIO     C826835  10.438   3.070   8.779
  480DIO     C926836  10.293   3.084   8.782
  480DIO    C1026837  10.220   3.114   8.660
  480DIO    C1126838  10.293   3.147   8.538
  480DIO    C1226839  10.437   3.134   8.536
  480DIO     F426840  10.502   3.159   8.420
  480DIO     O126841  10.088   3.151   8.675
  480DIO    C1326842   9.994   3.116   8.578
  480DIO     O226843   9.993   3.031   8.486
  480DIO    C1426844   9.865   3.183   8.600
  480DIO    C1526845   9.798   3.183   8.732
  480DIO     F526846   9.861   3.130   8.839
  480DIO    C1626847   9.667   3.242   8.754
  480DIO    C1726848   9.592   3.298   8.643
  480DIO    C1826849   9.660   3.314   8.515
  480DIO    C1926850   9.792   3.256   8.494
  480DIO     F626851   9.855   3.288   8.378
  480DIO    C2026852   9.451   3.349   8.662
  480DIO     O326853   9.381   3.288   8.771
  480DIO    C2126854   9.338   3.156   8.741
  480DIO    C2226855   9.249   3.154   8.617
  480DIO    C2326856   9.329   3.219   8.504
  480DIO     O426857   9.374   3.349   8.541
  480DIO    C2426858   9.116   3.231   8.637
  480DIO    C2526859   9.025   3.179   8.749
  480DIO    C2626860   8.987   3.033   8.734
  480DIO     H126861  10.707   3.275   8.558
  480DIO     H226862  10.666   2.871   8.733
  480DIO     H326863  10.489   3.045   8.870
  480DIO     H426864  10.238   3.075   8.874
  480DIO     H526865  10.238   3.174   8.449
  480DIO     H626866   9.629   3.246   8.855
  480DIO     H726867   9.618   3.374   8.436
  480DIO     H826868   9.461   3.455   8.690
  480DIO     H926869   9.424   3.090   8.726
  480DIO    H1026870   9.285   3.117   8.828
  480DIO    H1126871   9.226   3.051   8.589
  480DIO    H1226872   9.268   3.229   8.414
  480DIO    H1326873   9.416   3.156   8.477
  480DIO    H1426874   9.136   3.337   8.655
  480DIO    H1526875   9.059   3.227   8.542
  480DIO    H1626876   9.073   3.195   8.846
  480DIO    H1726877   8.933   3.240   8.749
  480DIO    H1826878   8.943   3.013   8.636
  480DIO    H1926879   9.073   2.967   8.748
  480DIO    H2026880   8.913   3.006   8.811
  481DIO     F126881   6.115   3.140   6.445
  481DIO     C126882   6.038   3.030   6.441
  481DIO     C226883   5.893   3.045   6.450
  481DIO     C326884   5.805   2.926   6.448
  481DIO     C426885   5.870   2.794   6.434
  481DIO     C526886   6.014   2.782   6.425
  481DIO     F226887   6.070   2.661   6.408
  481DIO     C626888   6.098   2.900   6.428
  481DIO     F326889   6.232   2.888   6.421
  481DIO     C726890   5.658   2.938   6.459
  481DIO     C826891   5.581   2.858   6.556
  481DIO     C926892   5.436   2.870   6.566
  481DIO    C1026893   5.364   2.954   6.473
  481DIO    C1126894   5.436   3.040   6.381
  481DIO    C1226895   5.580   3.030   6.373
  481DIO     F426896   5.645   3.107   6.283
  481DIO     O126897   5.232   2.979   6.503
  481DIO    C1326898   5.137   2.994   6.402
  481DIO     O226899   5.136   2.963   6.280
  481DIO    C1426900   5.008   3.042   6.452
  481DIO    C1526901   4.942   2.980   6.569
  481DIO     F526902   5.004   2.882   6.638
  481DIO    C1626903   4.811   3.021   6.616
  481DIO    C1726904   4.735   3.123   6.544
  481DIO    C1826905   4.804   3.198   6.440
  481DIO    C1926906   4.936   3.157   6.394
  481DIO     F626907   4.998   3.240   6.307
  481DIO    C2026908   4.594   3.160   6.585
  481DIO     O326909   4.525   3.054   6.652
  481DIO    C2126910   4.481   2.952   6.563
  481DIO    C2226911   4.392   3.009   6.454
  481DIO    C2326912   4.473   3.119   6.385
  481DIO     O426913   4.517   3.216   6.479
  481DIO    C2426914   4.259   3.067   6.507
  481DIO    C2526915   4.169   2.969   6.582
  481DIO    C2626916   4.130   2.847   6.500
  481DIO     H126917   5.851   3.144   6.459
  481DIO     H226918   5.810   2.705   6.422
  481DIO     H326919   5.633   2.793   6.625
  481DIO     H426920   5.381   2.817   6.643
  481DIO     H526921   5.382   3.106   6.315
  481DIO     H626922   4.773   2.977   6.708
  481DIO     H726923   4.761   3.288   6.398
  481DIO     H826924   4.604   3.239   6.660
  481DIO     H926925   4.568   2.901   6.520
  481DIO    H1026926   4.428   2.876   6.622
  481DIO    H1126927   4.370   2.931   6.380
  481DIO    H1226928   4.412   3.171   6.310
  481DIO    H1326929   4.559   3.077   6.331
  481DIO    H1426930   4.279   3.152   6.574
  481DIO    H1526931   4.203   3.108   6.423
  481DIO    H1626932   4.216   2.937   6.675
  481DIO    H1726933   4.077   3.022   6.611
  481DIO    H1826934   4.086   2.875   6.404
  481DIO    H1926935   4.217   2.782   6.480
  481DIO    H2026936   4.057   2.787   6.554
  482DIO     F126937   1.760   8.354   2.244
  482DIO     C126938   1.682   8.387   2.349
  482DIO     C226939   1.538   8.391   2.332
  482DIO     C326940   1.449   8.429   2.444
  482DIO     C426941   1.515   8.460   2.574
  482DIO     C526942   1.659   8.455   2.588
  482DIO     F226943   1.715   8.480   2.708
  482DIO     C626944   1.743   8.419   2.476
  482DIO     F326945   1.877   8.416   2.490
  482DIO     C726946   1.303   8.434   2.429
  482DIO     C826947   1.226   8.553   2.473
  482DIO     C926948   1.081   8.558   2.458
  482DIO    C1026949   1.009   8.442   2.410
  482DIO    C1126950   1.081   8.327   2.360
  482DIO    C1226951   1.225   8.323   2.372
  482DIO     F426952   1.290   8.212   2.330
  482DIO     O126953   0.876   8.463   2.377
  482DIO    C1326954   0.782   8.362   2.396
  482DIO     O226955   0.781   8.258   2.467
  482DIO    C1426956   0.653   8.394   2.334
  482DIO    C1526957   0.586   8.524   2.354
  482DIO     F526958   0.649   8.622   2.422
  482DIO    C1626959   0.456   8.555   2.299
  482DIO    C1726960   0.380   8.453   2.227
  482DIO    C1826961   0.449   8.330   2.191
  482DIO    C1926962   0.580   8.300   2.245
  482DIO     F626963   0.643   8.191   2.196
  482DIO    C2026964   0.239   8.480   2.179
  482DIO     O326965   0.169   8.578   2.256
  482DIO    C2126966   0.126   8.529   2.382
  482DIO    C2226967   0.037   8.406   2.364
  482DIO    C2326968   0.118   8.304   2.284
  482DIO     O426969   0.162   8.361   2.161
  482DIO    C2426970  -0.096   8.437   2.292
  482DIO    C2526971  -0.187   8.540   2.360
  482DIO    C2626972  -0.225   8.504   2.502
  482DIO     H126973   1.496   8.366   2.236
  482DIO     H226974   1.454   8.478   2.662
  482DIO     H326975   1.277   8.640   2.511
  482DIO     H426976   1.026   8.648   2.482
  482DIO     H526977   1.027   8.243   2.319
  482DIO     H626978   0.418   8.656   2.309
  482DIO     H726979   0.406   8.261   2.120
  482DIO     H826980   0.249   8.523   2.078
  482DIO     H926981   0.212   8.505   2.444
  482DIO    H1026982   0.073   8.609   2.433
  482DIO    H1126983   0.014   8.363   2.462
  482DIO    H1226984   0.057   8.216   2.260
  482DIO    H1326985   0.204   8.268   2.341
  482DIO    H1426986  -0.076   8.472   2.190
  482DIO    H1526987  -0.152   8.344   2.281
  482DIO    H1626988  -0.139   8.639   2.359
  482DIO    H1726989  -0.278   8.550   2.300
  482DIO    H1826990  -0.269   8.404   2.507
  482DIO    H1926991  -0.138   8.507   2.569
  482DIO    H2026992  -0.299   8.575   2.540
  483DIO     F126993   7.790   4.610   9.928
  483DIO     C126994   7.712   4.606  10.038
  483DIO     C226995   7.568   4.615  10.024
  483DIO     C326996   7.479   4.613  10.143
  483DIO     C426997   7.545   4.598  10.275
  483DIO     C526998   7.689   4.589  10.286
  483DIO     F226999   7.745   4.572  10.408
  483DIO     C627000   7.773   4.592  10.169
  483DIO     F327001   7.907   4.585  10.181
  483DIO     C727002   7.333   4.623  10.130
  483DIO     C827003   7.256   4.720  10.211
  483DIO     C927004   7.111   4.730  10.199
  483DIO    C1027005   7.039   4.637  10.115
  483DIO    C1127006   7.111   4.545  10.029
  483DIO    C1227007   7.255   4.537  10.039
  483DIO     F427008   7.320   4.447   9.962
  483DIO     O127009   6.906   4.667  10.090
  483DIO    C1327010   6.812   4.566  10.074
  483DIO     O227011   6.811   4.444  10.106
  483DIO    C1427012   6.683   4.617  10.026
  483DIO    C1527013   6.616   4.733  10.089
  483DIO     F527014   6.679   4.802  10.187
  483DIO    C1627015   6.486   4.781  10.048
  483DIO    C1727016   6.410   4.709   9.946
  483DIO    C1827017   6.479   4.604   9.871
  483DIO    C1927018   6.610   4.558   9.911
  483DIO     F627019   6.673   4.472   9.829
  483DIO    C2027020   6.269   4.750   9.909
  483DIO     O327021   6.199   4.817  10.015
  483DIO    C2127022   6.156   4.728  10.117
  483DIO    C2227023   6.067   4.618  10.059
  483DIO    C2327024   6.148   4.549   9.949
  483DIO     O427025   6.192   4.644   9.852
  483DIO    C2427026   5.934   4.672  10.001
  483DIO    C2527027   5.843   4.746  10.100
  483DIO    C2627028   5.805   4.664  10.222
  483DIO     H127029   7.526   4.624   9.925
  483DIO     H227030   7.484   4.586  10.364
  483DIO     H327031   7.307   4.789  10.276
  483DIO     H427032   7.056   4.807  10.252
  483DIO     H527033   7.057   4.480   9.962
  483DIO     H627034   6.448   4.872  10.092
  483DIO     H727035   6.436   4.563   9.780
  483DIO     H827036   6.279   4.825   9.830
  483DIO     H927037   6.242   4.684  10.168
  483DIO    H1027038   6.103   4.787  10.193
  483DIO    H1127039   6.044   4.545  10.137
  483DIO    H1227040   6.087   4.475   9.897
  483DIO    H1327041   6.234   4.496   9.991
  483DIO    H1427042   5.954   4.739   9.917
  483DIO    H1527043   5.878   4.587   9.960
  483DIO    H1627044   5.891   4.840  10.132
  483DIO    H1727045   5.752   4.775  10.047
  483DIO    H1827046   5.761   4.568  10.193
  483DIO    H1927047   5.892   4.645  10.286
  483DIO    H2027048   5.731   4.718  10.282
  484DIO     F127049   7.263   5.978   2.040
  484DIO     C127050   7.186   6.033   2.135
  484DIO     C227051   7.042   6.033   2.119
  484DIO     C327052   6.953   6.094   2.220
  484DIO     C427053   7.018   6.153   2.339
  484DIO     C527054   7.163   6.151   2.354
  484DIO     F227055   7.218   6.202   2.466
  484DIO     C627056   7.246   6.091   2.253
  484DIO     F327057   7.380   6.091   2.267
  484DIO     C727058   6.806   6.096   2.204
  484DIO     C827059   6.729   6.222   2.220
  484DIO     C927060   6.585   6.224   2.205
  484DIO    C1027061   6.512   6.100   2.183
  484DIO    C1127062   6.585   5.976   2.160
  484DIO    C1227063   6.729   5.975   2.172
  484DIO     F427064   6.794   5.858   2.155
  484DIO     O127065   6.380   6.112   2.146
  484DIO    C1327066   6.285   6.019   2.187
  484DIO     O227067   6.284   5.932   2.279
  484DIO    C1427068   6.156   6.036   2.120
  484DIO    C1527069   6.090   6.168   2.110
  484DIO     F527070   6.153   6.278   2.156
  484DIO    C1627071   5.959   6.185   2.050
  484DIO    C1727072   5.883   6.070   2.002
  484DIO    C1827073   5.952   5.942   1.994
  484DIO    C1927074   6.084   5.925   2.053
  484DIO     F627075   6.146   5.807   2.030
  484DIO    C2027076   5.743   6.086   1.949
  484DIO     O327077   5.673   6.199   2.003
  484DIO    C2127078   5.629   6.178   2.137
  484DIO    C2227079   5.540   6.054   2.146
  484DIO    C2327080   5.621   5.937   2.090
  484DIO     O427081   5.665   5.965   1.958
  484DIO    C2427082   5.408   6.069   2.069
  484DIO    C2527083   5.317   6.184   2.113
  484DIO    C2627084   5.278   6.180   2.260
  484DIO     H127085   6.999   5.987   2.030
  484DIO     H227086   6.958   6.190   2.421
  484DIO     H327087   6.781   6.315   2.238
  484DIO     H427088   6.530   6.317   2.208
  484DIO     H527089   6.530   5.885   2.138
  484DIO     H627090   5.921   6.286   2.038
  484DIO     H727091   5.909   5.859   1.940
  484DIO     H827092   5.752   6.106   1.842
  484DIO     H927093   5.716   6.168   2.203
  484DIO    H1027094   5.576   6.268   2.169
  484DIO    H1127095   5.518   6.034   2.252
  484DIO    H1227096   5.560   5.847   2.086
  484DIO    H1327097   5.707   5.915   2.154
  484DIO    H1427098   5.427   6.080   1.962
  484DIO    H1527099   5.351   5.975   2.079
  484DIO    H1627100   5.364   6.281   2.090
  484DIO    H1727101   5.225   6.181   2.052
  484DIO    H1827102   5.235   6.084   2.286
  484DIO    H1927103   5.365   6.198   2.324
  484DIO    H2027104   5.205   6.258   2.281
  485DIO     F127105   4.973  10.181   0.442
  485DIO     C127106   4.896  10.137   0.543
  485DIO     C227107   4.752  10.151   0.533
  485DIO     C327108   4.663  10.106   0.642
  485DIO     C427109   4.728  10.045   0.760
  485DIO     C527110   4.873  10.032   0.768
  485DIO     F227111   4.928   9.972   0.875
  485DIO     C627112   4.956  10.078   0.660
  485DIO     F327113   5.090  10.066   0.668
  485DIO     C727114   4.517  10.120   0.635
  485DIO     C827115   4.439  10.182   0.745
  485DIO     C927116   4.295  10.195   0.738
  485DIO    C1027117   4.222  10.139   0.626
  485DIO    C1127118   4.295  10.084   0.512
  485DIO    C1227119   4.439  10.073   0.518
  485DIO     F427120   4.504  10.018   0.414
  485DIO     O127121   4.090  10.176   0.613
  485DIO    C1327122   3.995  10.087   0.562
  485DIO     O227123   3.995   9.962   0.547
  485DIO    C1427124   3.866  10.152   0.536
  485DIO    C1527125   3.800  10.238   0.636
  485DIO     F527126   3.863  10.267   0.752
  485DIO    C1627127   3.669  10.297   0.615
  485DIO    C1727128   3.593  10.267   0.494
  485DIO    C1827129   3.662  10.197   0.386
  485DIO    C1927130   3.794  10.139   0.407
  485DIO     F627131   3.856  10.088   0.299
  485DIO    C2027132   3.453  10.319   0.475
  485DIO     O327133   3.383  10.342   0.598
  485DIO    C2127134   3.339  10.222   0.660
  485DIO    C2227135   3.250  10.141   0.567
  485DIO    C2327136   3.331  10.117   0.439
  485DIO     O427137   3.375  10.240   0.383
  485DIO    C2427138   3.118  10.212   0.532
  485DIO    C2527139   3.027  10.246   0.651
  485DIO    C2627140   2.989  10.125   0.735
  485DIO     H127141   4.709  10.195   0.444
  485DIO     H227142   4.668  10.001   0.839
  485DIO     H327143   4.491  10.222   0.831
  485DIO     H427144   4.240  10.247   0.815
  485DIO     H527145   4.240  10.047   0.426
  485DIO     H627146   3.631  10.366   0.689
  485DIO     H727147   3.619  10.191   0.287
  485DIO     H827148   3.462  10.417   0.428
  485DIO     H927149   3.426  10.163   0.692
  485DIO    H1027150   3.287  10.250   0.752
  485DIO    H1127151   3.228  10.044   0.613
  485DIO    H1227152   3.270  10.066   0.364
  485DIO    H1327153   3.417  10.052   0.459
  485DIO    H1427154   3.138  10.305   0.478
  485DIO    H1527155   3.061  10.148   0.463
  485DIO    H1627156   3.074  10.321   0.715
  485DIO    H1727157   2.935  10.292   0.612
  485DIO    H1827158   2.945  10.046   0.673
  485DIO    H1927159   3.075  10.084   0.788
  485DIO    H2027160   2.915  10.154   0.811
  486DIO     F127161   3.346   1.256   1.503
  486DIO     C127162   3.269   1.335   1.579
  486DIO     C227163   3.125   1.330   1.563
  486DIO     C327164   3.036   1.417   1.643
  486DIO     C427165   3.101   1.507   1.741
  486DIO     C527166   3.246   1.509   1.756
  486DIO     F227167   3.301   1.589   1.849
  486DIO     C627168   3.329   1.423   1.675
  486DIO     F327169   3.463   1.428   1.689
  486DIO     C727170   2.890   1.415   1.627
  486DIO     C827171   2.812   1.540   1.608
  486DIO     C927172   2.668   1.538   1.593
  486DIO    C1027173   2.595   1.413   1.606
  486DIO    C1127174   2.668   1.287   1.618
  486DIO    C1227175   2.812   1.290   1.630
  486DIO     F427176   2.877   1.172   1.646
  486DIO     O127177   2.463   1.415   1.567
  486DIO    C1327178   2.368   1.336   1.632
  486DIO     O227179   2.368   1.278   1.744
  486DIO    C1427180   2.239   1.333   1.563
  486DIO    C1527181   2.173   1.458   1.517
  486DIO     F527182   2.236   1.576   1.530
  486DIO    C1627183   2.042   1.458   1.454
  486DIO    C1727184   1.966   1.334   1.440
  486DIO    C1827185   2.035   1.209   1.468
  486DIO    C1927186   2.167   1.208   1.530
  486DIO     F627187   2.229   1.089   1.540
  486DIO    C2027188   1.826   1.334   1.385
  486DIO     O327189   1.756   1.458   1.406
  486DIO    C2127190   1.712   1.475   1.540
  486DIO    C2227191   1.623   1.359   1.584
  486DIO    C2327192   1.704   1.231   1.562
  486DIO     O427193   1.748   1.221   1.427
  486DIO    C2427194   1.491   1.351   1.505
  486DIO    C2527195   1.400   1.474   1.515
  486DIO    C2627196   1.362   1.511   1.657
  486DIO     H127197   3.082   1.262   1.490
  486DIO     H227198   3.041   1.565   1.810
  486DIO     H327199   2.864   1.635   1.600
  486DIO     H427200   2.613   1.628   1.570
  486DIO     H527201   2.613   1.194   1.623
  486DIO     H627202   2.004   1.552   1.415
  486DIO     H727203   1.992   1.114   1.439
  486DIO     H827204   1.835   1.324   1.276
  486DIO     H927205   1.799   1.484   1.606
  486DIO    H1027206   1.660   1.570   1.546
  486DIO    H1127207   1.601   1.368   1.690
  486DIO    H1227208   1.643   1.142   1.583
  486DIO    H1327209   1.790   1.227   1.630
  486DIO    H1427210   1.511   1.333   1.399
  486DIO    H1527211   1.434   1.264   1.541
  486DIO    H1627212   1.447   1.560   1.467
  486DIO    H1727213   1.308   1.454   1.458
  486DIO    H1827214   1.318   1.425   1.710
  486DIO    H1927215   1.448   1.546   1.715
  486DIO    H2027216   1.288   1.592   1.657
  487DIO     F127217   4.319   7.566   9.616
  487DIO     C127218   4.241   7.555   9.725
  487DIO     C227219   4.097   7.565   9.711
  487DIO     C327220   4.008   7.556   9.829
  487DIO     C427221   4.074   7.534   9.961
  487DIO     C527222   4.218   7.525   9.971
  487DIO     F227223   4.273   7.500  10.092
  487DIO     C627224   4.302   7.534   9.854
  487DIO     F327225   4.436   7.526   9.866
  487DIO     C727226   3.862   7.567   9.818
  487DIO     C827227   3.785   7.660   9.904
  487DIO     C927228   3.640   7.670   9.893
  487DIO    C1027229   3.567   7.582   9.803
  487DIO    C1127230   3.640   7.495   9.712
  487DIO    C1227231   3.784   7.487   9.721
  487DIO     F427232   3.849   7.402   9.639
  487DIO     O127233   3.435   7.614   9.780
  487DIO    C1327234   3.341   7.514   9.759
  487DIO     O227235   3.340   7.390   9.783
  487DIO    C1427236   3.212   7.567   9.714
  487DIO    C1527237   3.145   7.680   9.783
  487DIO     F527238   3.208   7.743   9.884
  487DIO    C1627239   3.015   7.729   9.744
  487DIO    C1727240   2.939   7.663   9.638
  487DIO    C1827241   3.008   7.563   9.558
  487DIO    C1927242   3.139   7.515   9.596
  487DIO     F627243   3.202   7.433   9.508
  487DIO    C2027244   2.798   7.707   9.604
  487DIO     O327245   2.728   7.767   9.714
  487DIO    C2127246   2.685   7.672   9.810
  487DIO    C2227247   2.596   7.566   9.747
  487DIO    C2327248   2.677   7.504   9.633
  487DIO     O427249   2.721   7.604   9.541
  487DIO    C2427250   2.463   7.623   9.692
  487DIO    C2527251   2.372   7.692   9.795
  487DIO    C2627252   2.334   7.603   9.912
  487DIO     H127253   4.054   7.579   9.613
  487DIO     H227254   4.013   7.517  10.049
  487DIO     H327255   3.836   7.725   9.973
  487DIO     H427256   3.585   7.744   9.950
  487DIO     H527257   3.586   7.434   9.642
  487DIO     H627258   2.976   7.818   9.793
  487DIO     H727259   2.965   7.527   9.465
  487DIO     H827260   2.808   7.786   9.529
  487DIO     H927261   2.771   7.626   9.859
  487DIO    H1027262   2.632   7.727   9.889
  487DIO    H1127263   2.573   7.488   9.820
  487DIO    H1227264   2.615   7.432   9.577
  487DIO    H1327265   2.763   7.448   9.672
  487DIO    H1427266   2.483   7.695   9.611
  487DIO    H1527267   2.407   7.541   9.646
  487DIO    H1627268   2.420   7.783   9.832
  487DIO    H1727269   2.281   7.724   9.744
  487DIO    H1827270   2.290   7.509   9.877
  487DIO    H1927271   2.420   7.580   9.975
  487DIO    H2027272   2.260   7.654   9.975
  488DIO     F127273  10.409   7.832   1.637
  488DIO     C127274  10.331   7.830   1.747
  488DIO     C227275  10.187   7.839   1.733
  488DIO     C327276  10.098   7.839   1.851
  488DIO     C427277  10.164   7.827   1.984
  488DIO     C527278  10.308   7.819   1.996
  488DIO     F227279  10.363   7.804   2.118
  488DIO     C627280  10.392   7.819   1.878
  488DIO     F327281  10.526   7.812   1.890
  488DIO     C727282   9.952   7.849   1.839
  488DIO     C827283   9.875   7.948   1.917
  488DIO     C927284   9.730   7.958   1.906
  488DIO    C1027285   9.657   7.863   1.823
  488DIO    C1127286   9.730   7.769   1.739
  488DIO    C1227287   9.874   7.761   1.749
  488DIO     F427288   9.939   7.670   1.674
  488DIO     O127289   9.525   7.893   1.798
  488DIO    C1327290   9.431   7.791   1.784
  488DIO     O227291   9.430   7.670   1.818
  488DIO    C1427292   9.302   7.841   1.735
  488DIO    C1527293   9.235   7.959   1.795
  488DIO     F527294   9.298   8.030   1.892
  488DIO    C1627295   9.105   8.005   1.753
  488DIO    C1727296   9.029   7.931   1.652
  488DIO    C1827297   9.098   7.825   1.580
  488DIO    C1927298   9.229   7.780   1.622
  488DIO     F627299   9.292   7.691   1.541
  488DIO    C2027300   8.888   7.971   1.615
  488DIO     O327301   8.818   8.041   1.720
  488DIO    C2127302   8.775   7.954   1.823
  488DIO    C2227303   8.686   7.843   1.768
  488DIO    C2327304   8.767   7.772   1.659
  488DIO     O427305   8.811   7.864   1.561
  488DIO    C2427306   8.553   7.895   1.709
  488DIO    C2527307   8.462   7.972   1.806
  488DIO    C2627308   8.424   7.892   1.930
  488DIO     H127309  10.144   7.845   1.634
  488DIO     H227310  10.103   7.817   2.073
  488DIO     H327311   9.926   8.019   1.981
  488DIO     H427312   9.675   8.036   1.956
  488DIO     H527313   9.676   7.702   1.674
  488DIO     H627314   9.066   8.097   1.795
  488DIO     H727315   9.055   7.782   1.490
  488DIO     H827316   8.898   8.045   1.534
  488DIO     H927317   8.861   7.911   1.875
  488DIO    H1027318   8.722   8.014   1.898
  488DIO    H1127319   8.663   7.771   1.848
  488DIO    H1227320   8.705   7.696   1.609
  488DIO    H1327321   8.853   7.719   1.703
  488DIO    H1427322   8.573   7.960   1.623
  488DIO    H1527323   8.497   7.810   1.670
  488DIO    H1627324   8.510   8.066   1.836
  488DIO    H1727325   8.371   7.999   1.753
  488DIO    H1827326   8.380   7.796   1.903
  488DIO    H1927327   8.510   7.874   1.994
  488DIO    H2027328   8.350   7.948   1.989
  489DIO     F127329   5.710   4.142   5.600
  489DIO     C127330   5.632   4.201   5.507
  489DIO     C227331   5.488   4.186   5.515
  489DIO     C327332   5.399   4.247   5.414
  489DIO     C427333   5.465   4.326   5.307
  489DIO     C527334   5.609   4.340   5.301
  489DIO     F227335   5.664   4.416   5.205
  489DIO     C627336   5.693   4.278   5.401
  489DIO     F327337   5.826   4.291   5.394
  489DIO     C727338   5.253   4.232   5.419
  489DIO     C827339   5.176   4.189   5.301
  489DIO     C927340   5.031   4.174   5.306
  489DIO    C1027341   4.958   4.213   5.425
  489DIO    C1127342   5.031   4.249   5.546
  489DIO    C1227343   5.175   4.260   5.541
  489DIO     F427344   5.240   4.299   5.653
  489DIO     O127345   4.826   4.174   5.432
  489DIO    C1327346   4.732   4.253   5.496
  489DIO     O227347   4.731   4.375   5.530
  489DIO    C1427348   4.603   4.186   5.512
  489DIO    C1527349   4.536   4.116   5.399
  489DIO     F527350   4.599   4.106   5.280
  489DIO    C1627351   4.405   4.055   5.411
  489DIO    C1727352   4.330   4.065   5.536
  489DIO    C1827353   4.398   4.118   5.653
  489DIO    C1927354   4.530   4.178   5.641
  489DIO     F627355   4.593   4.212   5.756
  489DIO    C2027356   4.189   4.011   5.546
  489DIO     O327357   4.119   4.007   5.421
  489DIO    C2127358   4.076   4.135   5.378
  489DIO    C2227359   3.987   4.201   5.483
  489DIO    C2327360   4.067   4.205   5.613
  489DIO     O427361   4.112   4.075   5.649
  489DIO    C2427362   3.854   4.125   5.506
  489DIO    C2527363   3.763   4.111   5.383
  489DIO    C2627364   3.725   4.243   5.319
  489DIO     H127365   5.445   4.129   5.596
  489DIO     H227366   5.404   4.382   5.236
  489DIO     H327367   5.227   4.162   5.209
  489DIO     H427368   4.976   4.134   5.222
  489DIO     H527369   4.976   4.272   5.637
  489DIO     H627370   4.367   3.998   5.327
  489DIO     H727371   4.356   4.108   5.752
  489DIO     H827372   4.199   3.907   5.578
  489DIO     H927373   4.162   4.198   5.356
  489DIO    H1027374   4.023   4.122   5.283
  489DIO    H1127375   3.964   4.304   5.452
  489DIO    H1227376   4.006   4.243   5.695
  489DIO    H1327377   4.154   4.272   5.603
  489DIO    H1427378   3.874   4.025   5.545
  489DIO    H1527379   3.797   4.178   5.584
  489DIO    H1627380   3.811   4.046   5.309
  489DIO    H1727381   3.671   4.059   5.414
  489DIO    H1827382   3.681   4.311   5.392
  489DIO    H1927383   3.811   4.292   5.273
  489DIO    H2027384   3.651   4.226   5.240
  490DIO     F127385   8.160   0.515   7.271
  490DIO     C127386   8.082   0.607   7.210
  490DIO     C227387   7.938   0.590   7.211
  490DIO     C327388   7.849   0.686   7.142
  490DIO     C427389   7.915   0.801   7.076
  490DIO     C527390   8.059   0.816   7.076
  490DIO     F227391   8.114   0.924   7.018
  490DIO     C627392   8.143   0.719   7.143
  490DIO     F327393   8.276   0.734   7.142
  490DIO     C727394   7.703   0.670   7.141
  490DIO     C827395   7.626   0.677   7.015
  490DIO     C927396   7.481   0.662   7.014
  490DIO    C1027397   7.408   0.650   7.139
  490DIO    C1127398   7.481   0.635   7.264
  490DIO    C1227399   7.625   0.647   7.265
  490DIO     F427400   7.690   0.639   7.383
  490DIO     O127401   7.276   0.612   7.129
  490DIO    C1327402   7.182   0.659   7.220
  490DIO     O227403   7.181   0.757   7.300
  490DIO    C1427404   7.052   0.590   7.208
  490DIO    C1527405   6.986   0.572   7.077
  490DIO     F527406   7.049   0.609   6.963
  490DIO    C1627407   6.855   0.510   7.063
  490DIO    C1727408   6.780   0.471   7.182
  490DIO    C1827409   6.848   0.472   7.310
  490DIO    C1927410   6.980   0.532   7.323
  490DIO     F627411   7.042   0.517   7.442
  490DIO    C2027412   6.639   0.417   7.170
  490DIO     O327413   6.569   0.463   7.054
  490DIO    C2127414   6.525   0.597   7.065
  490DIO    C2227415   6.437   0.616   7.187
  490DIO    C2327416   6.517   0.568   7.308
  490DIO     O427417   6.562   0.434   7.289
  490DIO    C2427418   6.304   0.538   7.178
  490DIO    C2527419   6.213   0.573   7.060
  490DIO    C2627420   6.175   0.720   7.054
  490DIO     H127421   7.895   0.505   7.263
  490DIO     H227422   7.854   0.880   7.032
  490DIO     H327423   7.677   0.689   6.921
  490DIO     H427424   7.426   0.659   6.921
  490DIO     H527425   7.426   0.620   7.356
  490DIO     H627426   6.817   0.492   6.964
  490DIO     H727427   6.805   0.424   7.397
  490DIO     H827428   6.649   0.308   7.157
  490DIO     H927429   6.612   0.664   7.070
  490DIO    H1027430   6.473   0.623   6.973
  490DIO    H1127431   6.414   0.722   7.200
  490DIO    H1227432   6.456   0.571   7.399
  490DIO    H1327433   6.603   0.634   7.326
  490DIO    H1427434   6.324   0.430   7.175
  490DIO    H1527435   6.247   0.555   7.271
  490DIO    H1627436   6.260   0.543   6.966
  490DIO    H1727437   6.121   0.513   7.068
  490DIO    H1827438   6.131   0.753   7.148
  490DIO    H1927439   6.261   0.783   7.031
  490DIO    H2027440   6.101   0.736   6.974
  491DIO     F127441   5.452   2.130   1.110
  491DIO     C127442   5.375   2.033   1.160
  491DIO     C227443   5.230   2.049   1.161
  491DIO     C327444   5.142   1.946   1.218
  491DIO     C427445   5.207   1.824   1.271
  491DIO     C527446   5.351   1.809   1.269
  491DIO     F227447   5.407   1.695   1.314
  491DIO     C627448   5.435   1.913   1.213
  491DIO     F327449   5.569   1.899   1.213
  491DIO     C727450   4.995   1.961   1.221
  491DIO     C827451   4.918   1.939   1.345
  491DIO     C927452   4.773   1.954   1.348
  491DIO    C1027453   4.701   1.982   1.225
  491DIO    C1127454   4.773   2.011   1.103
  491DIO    C1227455   4.917   1.999   1.101
  491DIO     F427456   4.982   2.021   0.985
  491DIO     O127457   4.569   2.018   1.240
  491DIO    C1327458   4.474   1.982   1.144
  491DIO     O227459   4.473   1.894   1.054
  491DIO    C1427460   4.345   2.048   1.164
  491DIO    C1527461   4.279   2.052   1.296
  491DIO     F527462   4.341   2.001   1.405
  491DIO    C1627463   4.148   2.111   1.317
  491DIO    C1727464   4.072   2.164   1.204
  491DIO    C1827465   4.141   2.178   1.076
  491DIO    C1927466   4.273   2.119   1.056
  491DIO     F627467   4.335   2.148   0.940
  491DIO    C2027468   3.931   2.216   1.222
  491DIO     O327469   3.862   2.157   1.332
  491DIO    C2127470   3.818   2.025   1.305
  491DIO    C2227471   3.729   2.021   1.181
  491DIO    C2327472   3.810   2.082   1.067
  491DIO     O427473   3.854   2.213   1.102
  491DIO    C2427474   3.596   2.097   1.200
  491DIO    C2527475   3.506   2.048   1.313
  491DIO    C2627476   3.467   1.902   1.302
  491DIO     H127477   5.188   2.140   1.120
  491DIO     H227478   5.147   1.740   1.304
  491DIO     H327479   4.970   1.917   1.438
  491DIO     H427480   4.718   1.947   1.441
  491DIO     H527481   4.719   2.036   1.013
  491DIO     H627482   4.110   2.118   1.418
  491DIO     H727483   4.098   2.236   0.996
  491DIO     H827484   3.941   2.322   1.248
  491DIO     H927485   3.905   1.959   1.293
  491DIO    H1027486   3.765   1.988   1.394
  491DIO    H1127487   3.707   1.916   1.156
  491DIO    H1227488   3.749   2.090   0.977
  491DIO    H1327489   3.896   2.019   1.042
  491DIO    H1427490   3.616   2.204   1.216
  491DIO    H1527491   3.540   2.091   1.106
  491DIO    H1627492   3.553   2.067   1.410
  491DIO    H1727493   3.414   2.109   1.312
  491DIO    H1827494   3.423   1.880   1.204
  491DIO    H1927495   3.554   1.836   1.317
  491DIO    H2027496   3.394   1.876   1.379
  492DIO     F127497   5.839   6.672   2.251
  492DIO     C127498   5.761   6.667   2.361
  492DIO     C227499   5.617   6.676   2.347
  492DIO     C327500   5.528   6.674   2.465
  492DIO     C427501   5.594   6.660   2.597
  492DIO     C527502   5.738   6.651   2.609
  492DIO     F227503   5.794   6.633   2.730
  492DIO     C627504   5.822   6.654   2.491
  492DIO     F327505   5.956   6.646   2.503
  492DIO     C727506   5.382   6.684   2.453
  492DIO     C827507   5.305   6.782   2.533
  492DIO     C927508   5.160   6.792   2.522
  492DIO    C1027509   5.088   6.698   2.437
  492DIO    C1127510   5.160   6.607   2.351
  492DIO    C1227511   5.304   6.599   2.361
  492DIO     F427512   5.369   6.509   2.284
  492DIO     O127513   4.955   6.729   2.413
  492DIO    C1327514   4.861   6.628   2.397
  492DIO     O227515   4.860   6.506   2.428
  492DIO    C1427516   4.732   6.678   2.349
  492DIO    C1527517   4.666   6.795   2.412
  492DIO     F527518   4.728   6.864   2.509
  492DIO    C1627519   4.535   6.842   2.370
  492DIO    C1727520   4.459   6.771   2.268
  492DIO    C1827521   4.528   6.666   2.193
  492DIO    C1927522   4.659   6.620   2.234
  492DIO     F627523   4.722   6.533   2.151
  492DIO    C2027524   4.318   6.812   2.232
  492DIO     O327525   4.249   6.879   2.338
  492DIO    C2127526   4.205   6.789   2.440
  492DIO    C2227527   4.116   6.680   2.382
  492DIO    C2327528   4.197   6.611   2.272
  492DIO     O427529   4.241   6.706   2.175
  492DIO    C2427530   3.983   6.733   2.324
  492DIO    C2527531   3.893   6.808   2.423
  492DIO    C2627532   3.854   6.725   2.545
  492DIO     H127533   5.575   6.685   2.247
  492DIO     H227534   5.533   6.647   2.686
  492DIO     H327535   5.356   6.851   2.599
  492DIO     H427536   5.105   6.868   2.574
  492DIO     H527537   5.106   6.541   2.284
  492DIO     H627538   4.497   6.933   2.414
  492DIO     H727539   4.485   6.625   2.103
  492DIO     H827540   4.328   6.887   2.152
  492DIO     H927541   4.292   6.746   2.490
  492DIO    H1027542   4.152   6.848   2.515
  492DIO    H1127543   4.093   6.606   2.460
  492DIO    H1227544   4.136   6.536   2.220
  492DIO    H1327545   4.283   6.558   2.314
  492DIO    H1427546   4.003   6.801   2.239
  492DIO    H1527547   3.927   6.649   2.283
  492DIO    H1627548   3.940   6.901   2.455
  492DIO    H1727549   3.801   6.837   2.370
  492DIO    H1827550   3.810   6.630   2.516
  492DIO    H1927551   3.941   6.706   2.609
  492DIO    H2027552   3.780   6.780   2.605
  493DIO     F127553   7.467   9.240   7.423
  493DIO     C127554   7.389   9.152   7.357
  493DIO     C227555   7.245   9.158   7.373
  493DIO     C327556   7.157   9.062   7.304
  493DIO     C427557   7.222   8.961   7.218
  493DIO     C527558   7.366   8.956   7.204
  493DIO     F227559   7.422   8.865   7.121
  493DIO     C627560   7.450   9.051   7.272
  493DIO     F327561   7.584   9.045   7.260
  493DIO     C727562   7.010   9.066   7.319
  493DIO     C827563   6.933   8.944   7.354
  493DIO     C927564   6.788   8.949   7.369
  493DIO    C1027565   6.716   9.071   7.340
  493DIO    C1127566   6.788   9.194   7.312
  493DIO    C1227567   6.932   9.190   7.300
  493DIO     F427568   6.997   9.304   7.270
  493DIO     O127569   6.584   9.074   7.379
  493DIO    C1327570   6.489   9.144   7.304
  493DIO     O227571   6.488   9.187   7.186
  493DIO    C1427572   6.360   9.155   7.373
  493DIO    C1527573   6.294   9.038   7.434
  493DIO     F527574   6.356   8.918   7.436
  493DIO    C1627575   6.163   9.045   7.496
  493DIO    C1727576   6.087   9.170   7.495
  493DIO    C1827577   6.156   9.291   7.450
  493DIO    C1927578   6.287   9.283   7.389
  493DIO     F627579   6.350   9.400   7.364
  493DIO    C2027580   5.946   9.177   7.549
  493DIO     O327581   5.877   9.052   7.545
  493DIO    C2127582   5.833   9.018   7.413
  493DIO    C2227583   5.744   9.127   7.355
  493DIO    C2327584   5.825   9.257   7.361
  493DIO     O427585   5.869   9.284   7.493
  493DIO    C2427586   5.611   9.145   7.432
  493DIO    C2527587   5.521   9.021   7.438
  493DIO    C2627588   5.482   8.967   7.301
  493DIO     H127589   7.203   9.235   7.436
  493DIO     H227590   7.161   8.894   7.157
  493DIO     H327591   6.985   8.852   7.375
  493DIO     H427592   6.733   8.862   7.403
  493DIO     H527593   6.734   9.286   7.296
  493DIO     H627594   6.125   8.957   7.547
  493DIO     H727595   6.113   9.389   7.467
  493DIO     H827596   5.956   9.200   7.656
  493DIO     H927597   5.920   9.000   7.349
  493DIO    H1027598   5.780   8.922   7.419
  493DIO    H1127599   5.722   9.104   7.251
  493DIO    H1227600   5.764   9.342   7.328
  493DIO    H1327601   5.911   9.252   7.293
  493DIO    H1427602   5.631   9.177   7.535
  493DIO    H1527603   5.555   9.226   7.386
  493DIO    H1627604   5.568   8.942   7.497
  493DIO    H1727605   5.429   9.049   7.492
  493DIO    H1827606   5.438   9.045   7.239
  493DIO    H1927607   5.569   8.925   7.249
  493DIO    H2027608   5.409   8.887   7.313
  494DIO     F127609   8.361   1.360   5.408
  494DIO     C127610   8.283   1.306   5.312
  494DIO     C227611   8.139   1.306   5.329
  494DIO     C327612   8.050   1.246   5.227
  494DIO     C427613   8.116   1.189   5.106
  494DIO     C527614   8.260   1.191   5.092
  494DIO     F227615   8.315   1.142   4.979
  494DIO     C627616   8.344   1.250   5.194
  494DIO     F327617   8.478   1.250   5.179
  494DIO     C727618   7.904   1.244   5.242
  494DIO     C827619   7.827   1.119   5.225
  494DIO     C927620   7.682   1.116   5.240
  494DIO    C1027621   7.609   1.240   5.263
  494DIO    C1127622   7.682   1.363   5.288
  494DIO    C1227623   7.826   1.365   5.276
  494DIO     F427624   7.891   1.481   5.295
  494DIO     O127625   7.477   1.227   5.300
  494DIO    C1327626   7.383   1.321   5.260
  494DIO     O227627   7.382   1.409   5.170
  494DIO    C1427628   7.254   1.303   5.328
  494DIO    C1527629   7.187   1.171   5.335
  494DIO     F527630   7.250   1.061   5.288
  494DIO    C1627631   7.057   1.152   5.395
  494DIO    C1727632   6.981   1.267   5.445
  494DIO    C1827633   7.050   1.395   5.454
  494DIO    C1927634   7.181   1.413   5.395
  494DIO     F627635   7.244   1.530   5.421
  494DIO    C2027636   6.840   1.251   5.497
  494DIO     O327637   6.770   1.138   5.442
  494DIO    C2127638   6.727   1.161   5.308
  494DIO    C2227639   6.638   1.285   5.300
  494DIO    C2327640   6.719   1.401   5.358
  494DIO     O427641   6.763   1.371   5.490
  494DIO    C2427642   6.505   1.269   5.378
  494DIO    C2527643   6.414   1.154   5.332
  494DIO    C2627644   6.376   1.161   5.185
  494DIO     H127645   8.096   1.350   5.418
  494DIO     H227646   8.055   1.153   5.024
  494DIO     H327647   7.878   1.026   5.205
  494DIO     H427648   7.627   1.023   5.235
  494DIO     H527649   7.628   1.454   5.311
  494DIO     H627650   7.018   1.052   5.405
  494DIO     H727651   7.007   1.477   5.510
  494DIO     H827652   6.850   1.228   5.604
  494DIO     H927653   6.813   1.172   5.242
  494DIO    H1027654   6.674   1.072   5.275
  494DIO    H1127655   6.615   1.307   5.196
  494DIO    H1227656   6.657   1.492   5.364
  494DIO    H1327657   6.805   1.424   5.295
  494DIO    H1427658   6.525   1.256   5.485
  494DIO    H1527659   6.449   1.363   5.369
  494DIO    H1627660   6.462   1.058   5.354
  494DIO    H1727661   6.323   1.157   5.393
  494DIO    H1827662   6.332   1.258   5.160
  494DIO    H1927663   6.462   1.144   5.121
  494DIO    H2027664   6.302   1.083   5.163
  495DIO     F127665   7.817  -0.820   4.300
  495DIO     C127666   7.739  -0.719   4.258
  495DIO     C227667   7.595  -0.736   4.255
  495DIO     C327668   7.506  -0.628   4.207
  495DIO     C427669   7.572  -0.502   4.164
  495DIO     C527670   7.716  -0.487   4.168
  495DIO     F227671   7.771  -0.370   4.132
  495DIO     C627672   7.800  -0.595   4.215
  495DIO     F327673   7.934  -0.581   4.216
  495DIO     C727674   7.360  -0.643   4.203
  495DIO     C827675   7.283  -0.611   4.081
  495DIO     C927676   7.138  -0.626   4.077
  495DIO    C1027677   7.065  -0.663   4.197
  495DIO    C1127678   7.138  -0.702   4.316
  495DIO    C1227679   7.282  -0.690   4.320
  495DIO     F427680   7.347  -0.722   4.433
  495DIO     O127681   6.933  -0.698   4.180
  495DIO    C1327682   6.839  -0.670   4.278
  495DIO     O227683   6.838  -0.590   4.375
  495DIO    C1427684   6.710  -0.734   4.253
  495DIO    C1527685   6.643  -0.727   4.120
  495DIO     F527686   6.706  -0.668   4.017
  495DIO    C1627687   6.513  -0.785   4.095
  495DIO    C1727688   6.437  -0.847   4.203
  495DIO    C1827689   6.506  -0.870   4.330
  495DIO    C1927690   6.637  -0.814   4.354
  495DIO     F627691   6.700  -0.852   4.468
  495DIO    C2027692   6.296  -0.897   4.181
  495DIO     O327693   6.226  -0.829   4.076
  495DIO    C2127694   6.183  -0.699   4.114
  495DIO    C2227695   6.094  -0.705   4.238
  495DIO    C2327696   6.175  -0.776   4.346
  495DIO     O427697   6.219  -0.904   4.302
  495DIO    C2427698   5.961  -0.780   4.213
  495DIO    C2527699   5.870  -0.722   4.104
  495DIO    C2627700   5.832  -0.577   4.127
  495DIO     H127701   7.552  -0.829   4.289
  495DIO     H227702   7.511  -0.416   4.138
  495DIO     H327703   7.334  -0.581   3.991
  495DIO     H427704   7.083  -0.611   3.985
  495DIO     H527705   7.084  -0.735   4.404
  495DIO     H627706   6.474  -0.783   3.994
  495DIO     H727707   6.463  -0.935   4.405
  495DIO     H827708   6.306  -1.001   4.147
  495DIO     H927709   6.269  -0.635   4.132
  495DIO    H1027710   6.130  -0.656   4.029
  495DIO    H1127711   6.071  -0.604   4.271
  495DIO    H1227712   6.113  -0.791   4.436
  495DIO    H1327713   6.261  -0.715   4.377
  495DIO    H1427714   5.981  -0.885   4.188
  495DIO    H1527715   5.905  -0.782   4.307
  495DIO    H1627716   5.918  -0.733   4.006
  495DIO    H1727717   5.779  -0.783   4.100
  495DIO    H1827718   5.788  -0.563   4.226
  495DIO    H1927719   5.918  -0.511   4.118
  495DIO    H2027720   5.758  -0.546   4.052
  496DIO     F127721   7.875   4.975  -0.514
  496DIO     C127722   7.797   4.943  -0.409
  496DIO     C227723   7.653   4.956  -0.421
  496DIO     C327724   7.564   4.924  -0.306
  496DIO     C427725   7.630   4.878  -0.182
  496DIO     C527726   7.774   4.866  -0.173
  496DIO     F227727   7.829   4.819  -0.059
  496DIO     C627728   7.858   4.898  -0.286
  496DIO     F327729   7.991   4.888  -0.276
  496DIO     C727730   7.418   4.937  -0.316
  496DIO     C827731   7.341   5.012  -0.214
  496DIO     C927732   7.196   5.024  -0.222
  496DIO    C1027733   7.123   4.955  -0.327
  496DIO    C1127734   7.196   4.887  -0.433
  496DIO    C1227735   7.340   4.877  -0.426
  496DIO     F427736   7.405   4.809  -0.523
  496DIO     O127737   6.991   4.990  -0.344
  496DIO    C1327738   6.897   4.896  -0.384
  496DIO     O227739   6.896   4.770  -0.384
  496DIO    C1427740   6.768   4.957  -0.418
  496DIO    C1527741   6.701   5.054  -0.328
  496DIO     F527742   6.764   5.097  -0.217
  496DIO    C1627743   6.570   5.111  -0.357
  496DIO    C1727744   6.495   5.066  -0.473
  496DIO    C1827745   6.563   4.984  -0.572
  496DIO    C1927746   6.695   4.929  -0.544
  496DIO     F627747   6.758   4.865  -0.645
  496DIO    C2027748   6.354   5.115  -0.498
  496DIO     O327749   6.284   5.154  -0.379
  496DIO    C2127750   6.241   5.042  -0.303
  496DIO    C2227751   6.152   4.950  -0.386
  496DIO    C2327752   6.232   4.911  -0.509
  496DIO     O427753   6.277   5.027  -0.580
  496DIO    C2427754   6.019   5.017  -0.428
  496DIO    C2527755   5.928   5.064  -0.314
  496DIO    C2627756   5.890   4.954  -0.217
  496DIO     H127757   7.610   4.989  -0.515
  496DIO     H227758   7.569   4.844  -0.099
  496DIO     H327759   7.392   5.062  -0.133
  496DIO     H427760   7.141   5.085  -0.152
  496DIO     H527761   7.141   4.840  -0.514
  496DIO     H627762   6.532   5.188  -0.291
  496DIO     H727763   6.521   4.966  -0.670
  496DIO     H827764   6.364   5.208  -0.557
  496DIO     H927765   6.327   4.987  -0.264
  496DIO    H1027766   6.188   5.080  -0.215
  496DIO    H1127767   6.129   4.860  -0.328
  496DIO    H1227768   6.171   4.852  -0.578
  496DIO    H1327769   6.319   4.849  -0.482
  496DIO    H1427770   6.039   5.103  -0.494
  496DIO    H1527771   5.962   4.945  -0.489
  496DIO    H1627772   5.976   5.147  -0.260
  496DIO    H1727773   5.836   5.105  -0.358
  496DIO    H1827774   5.846   4.869  -0.268
  496DIO    H1927775   5.976   4.920  -0.159
  496DIO    H2027776   5.816   4.992  -0.145
  497DIO     F127777   9.437   3.109   7.613
  497DIO     C127778   9.359   3.053   7.518
  497DIO     C227779   9.215   3.053   7.535
  497DIO     C327780   9.126   2.992   7.434
  497DIO     C427781   9.192   2.933   7.315
  497DIO     C527782   9.336   2.934   7.300
  497DIO     F227783   9.392   2.883   7.189
  497DIO     C627784   9.420   2.995   7.401
  497DIO     F327785   9.554   2.994   7.387
  497DIO     C727786   8.980   2.989   7.450
  497DIO     C827787   8.903   2.864   7.434
  497DIO     C927788   8.758   2.862   7.449
  497DIO    C1027789   8.686   2.986   7.470
  497DIO    C1127790   8.758   3.110   7.494
  497DIO    C1227791   8.902   3.111   7.481
  497DIO     F427792   8.967   3.228   7.498
  497DIO     O127793   8.553   2.974   7.508
  497DIO    C1327794   8.459   3.067   7.467
  497DIO     O227795   8.458   3.153   7.375
  497DIO    C1427796   8.330   3.051   7.534
  497DIO    C1527797   8.263   2.919   7.544
  497DIO     F527798   8.326   2.808   7.499
  497DIO    C1627799   8.133   2.901   7.604
  497DIO    C1727800   8.057   3.016   7.652
  497DIO    C1827801   8.126   3.145   7.659
  497DIO    C1927802   8.257   3.162   7.600
  497DIO     F627803   8.320   3.279   7.623
  497DIO    C2027804   7.916   3.001   7.705
  497DIO     O327805   7.846   2.888   7.651
  497DIO    C2127806   7.803   2.908   7.517
  497DIO    C2227807   7.714   3.032   7.507
  497DIO    C2327808   7.795   3.149   7.563
  497DIO     O427809   7.839   3.121   7.696
  497DIO    C2427810   7.581   3.018   7.585
  497DIO    C2527811   7.490   2.902   7.542
  497DIO    C2627812   7.452   2.906   7.395
  497DIO     H127813   9.173   3.099   7.624
  497DIO     H227814   9.131   2.895   7.233
  497DIO     H327815   8.954   2.771   7.416
  497DIO     H427816   8.703   2.769   7.446
  497DIO     H527817   8.704   3.201   7.515
  497DIO     H627818   8.095   2.800   7.616
  497DIO     H727819   8.083   3.228   7.713
  497DIO     H827820   7.926   2.981   7.812
  497DIO     H927821   7.889   2.918   7.451
  497DIO    H1027822   7.750   2.818   7.485
  497DIO    H1127823   7.691   3.052   7.402
  497DIO    H1227824   7.734   3.240   7.567
  497DIO    H1327825   7.881   3.171   7.499
  497DIO    H1427826   7.601   3.006   7.692
  497DIO    H1527827   7.525   3.111   7.574
  497DIO    H1627828   7.538   2.806   7.565
  497DIO    H1727829   7.399   2.906   7.602
  497DIO    H1827830   7.408   3.002   7.368
  497DIO    H1927831   7.539   2.887   7.330
  497DIO    H2027832   7.378   2.827   7.373
  498DIO     F127833   7.013   8.622   9.052
  498DIO     C127834   6.936   8.527   9.108
  498DIO     C227835   6.792   8.544   9.108
  498DIO     C327836   6.703   8.443   9.169
  498DIO     C427837   6.768   8.324   9.228
  498DIO     C527838   6.913   8.310   9.227
  498DIO     F227839   6.968   8.198   9.278
  498DIO     C627840   6.996   8.410   9.166
  498DIO     F327841   7.130   8.396   9.167
  498DIO     C727842   6.557   8.459   9.172
  498DIO     C827843   6.479   8.444   9.297
  498DIO     C927844   6.335   8.459   9.299
  498DIO    C1027845   6.262   8.480   9.175
  498DIO    C1127846   6.335   8.503   9.051
  498DIO    C1227847   6.479   8.490   9.050
  498DIO     F427848   6.544   8.507   8.933
  498DIO     O127849   6.130   8.517   9.187
  498DIO    C1327850   6.035   8.476   9.094
  498DIO     O227851   6.035   8.384   9.008
  498DIO    C1427852   5.906   8.543   9.111
  498DIO    C1527853   5.840   8.553   9.242
  498DIO     F527854   5.903   8.508   9.353
  498DIO    C1627855   5.709   8.614   9.260
  498DIO    C1727856   5.633   8.661   9.145
  498DIO    C1827857   5.702   8.668   9.016
  498DIO    C1927858   5.834   8.609   8.999
  498DIO     F627859   5.896   8.632   8.882
  498DIO    C2027860   5.493   8.714   9.160
  498DIO     O327861   5.423   8.661   9.273
  498DIO    C2127862   5.379   8.527   9.253
  498DIO    C2227863   5.290   8.516   9.129
  498DIO    C2327864   5.371   8.572   9.012
  498DIO     O427865   5.415   8.705   9.040
  498DIO    C2427866   5.158   8.594   9.144
  498DIO    C2527867   5.067   8.551   9.259
  498DIO    C2627868   5.029   8.404   9.256
  498DIO     H127869   6.749   8.633   9.062
  498DIO     H227870   6.708   8.242   9.266
  498DIO     H327871   6.531   8.426   9.390
  498DIO     H427872   6.280   8.456   9.392
  498DIO     H527873   6.280   8.524   8.960
  498DIO     H627874   5.671   8.626   9.361
  498DIO     H727875   5.659   8.722   8.933
  498DIO     H827876   5.502   8.821   9.180
  498DIO     H927877   5.466   8.460   9.243
  498DIO    H1027878   5.327   8.495   9.343
  498DIO    H1127879   5.268   8.411   9.109
  498DIO    H1227880   5.310   8.576   8.921
  498DIO    H1327881   5.457   8.508   8.990
  498DIO    H1427882   5.178   8.701   9.155
  498DIO    H1527883   5.101   8.583   9.050
  498DIO    H1627884   5.114   8.574   9.355
  498DIO    H1727885   4.975   8.611   9.255
  498DIO    H1827886   4.985   8.377   9.159
  498DIO    H1927887   5.115   8.339   9.274
  498DIO    H2027888   4.955   8.382   9.334
  499DIO     F127889  10.960   8.569   5.096
  499DIO     C127890  10.883   8.674   5.131
  499DIO     C227891  10.739   8.663   5.118
  499DIO     C327892  10.650   8.776   5.154
  499DIO     C427893  10.715   8.899   5.204
  499DIO     C527894  10.860   8.907   5.216
  499DIO     F227895  10.915   9.019   5.267
  499DIO     C627896  10.943   8.795   5.180
  499DIO     F327897  11.077   8.805   5.191
  499DIO     C727898  10.504   8.767   5.140
  499DIO     C827899  10.426   8.871   5.069
  499DIO     C927900  10.282   8.863   5.057
  499DIO    C1027901  10.209   8.756   5.122
  499DIO    C1127902  10.282   8.648   5.187
  499DIO    C1227903  10.426   8.655   5.197
  499DIO     F427904  10.491   8.556   5.261
  499DIO     O127905  10.077   8.741   5.086
  499DIO    C1327906   9.982   8.697   5.179
  499DIO     O227907   9.982   8.693   5.305
  499DIO    C1427908   9.853   8.665   5.117
  499DIO    C1527909   9.787   8.758   5.023
  499DIO     F527910   9.850   8.871   4.984
  499DIO    C1627911   9.656   8.732   4.966
  499DIO    C1727912   9.580   8.614   5.006
  499DIO    C1827913   9.649   8.512   5.085
  499DIO    C1927914   9.781   8.539   5.141
  499DIO     F627915   9.843   8.435   5.201
  499DIO    C2027916   9.440   8.590   4.956
  499DIO     O327917   9.370   8.710   4.922
  499DIO    C2127918   9.326   8.783   5.036
  499DIO    C2227919   9.237   8.697   5.125
  499DIO    C2327920   9.318   8.572   5.160
  499DIO     O427921   9.362   8.506   5.042
  499DIO    C2427922   9.105   8.657   5.057
  499DIO    C2527923   9.014   8.772   5.014
  499DIO    C2627924   8.976   8.866   5.127
  499DIO     H127925  10.696   8.570   5.082
  499DIO     H227926  10.655   8.981   5.241
  499DIO     H327927  10.478   8.953   5.021
  499DIO     H427928  10.227   8.935   4.998
  499DIO     H527929  10.227   8.565   5.231
  499DIO     H627930   9.618   8.799   4.890
  499DIO     H727931   9.606   8.414   5.100
  499DIO     H827932   9.449   8.535   4.862
  499DIO     H927933   9.413   8.820   5.092
  499DIO    H1027934   9.274   8.872   5.001
  499DIO    H1127935   9.215   8.752   5.217
  499DIO    H1227936   9.257   8.502   5.217
  499DIO    H1327937   9.404   8.598   5.223
  499DIO    H1427938   9.125   8.594   4.969
  499DIO    H1527939   9.048   8.594   5.127
  499DIO    H1627940   9.061   8.829   4.933
  499DIO    H1727941   8.922   8.730   4.971
  499DIO    H1827942   8.932   8.812   5.210
  499DIO    H1927943   9.062   8.923   5.163
  499DIO    H2027944   8.902   8.939   5.091
  500DIO     F127945   4.850   0.441   5.320
  500DIO     C127946   4.773   0.507   5.232
  500DIO     C227947   4.628   0.492   5.239
  500DIO     C327948   4.540   0.561   5.143
  500DIO     C427949   4.605   0.648   5.042
  500DIO     C527950   4.749   0.662   5.038
  500DIO     F227951   4.805   0.745   4.947
  500DIO     C627952   4.833   0.592   5.132
  500DIO     F327953   4.967   0.605   5.127
  500DIO     C727954   4.393   0.545   5.147
  500DIO     C827955   4.316   0.511   5.025
  500DIO     C927956   4.171   0.496   5.029
  500DIO    C1027957   4.099   0.525   5.151
  500DIO    C1127958   4.171   0.552   5.275
  500DIO    C1227959   4.315   0.564   5.271
  500DIO     F427960   4.380   0.594   5.385
  500DIO     O127961   3.967   0.486   5.155
  500DIO    C1327962   3.872   0.560   5.225
  500DIO     O227963   3.871   0.679   5.268
  500DIO    C1427964   3.743   0.492   5.236
  500DIO    C1527965   3.677   0.431   5.118
  500DIO     F527966   3.739   0.430   4.999
  500DIO    C1627967   3.546   0.369   5.125
  500DIO    C1727968   3.470   0.370   5.250
  500DIO    C1827969   3.539   0.413   5.371
  500DIO    C1927970   3.671   0.474   5.364
  500DIO     F627971   3.733   0.499   5.481
  500DIO    C2027972   3.329   0.315   5.257
  500DIO     O327973   3.260   0.320   5.132
  500DIO    C2127974   3.216   0.451   5.098
  500DIO    C2227975   3.127   0.509   5.208
  500DIO    C2327976   3.208   0.503   5.338
  500DIO     O427977   3.252   0.370   5.364
  500DIO    C2427978   2.994   0.432   5.225
  500DIO    C2527979   2.904   0.427   5.102
  500DIO    C2627980   2.865   0.564   5.048
  500DIO     H127981   4.586   0.428   5.316
  500DIO     H227982   4.545   0.708   4.975
  500DIO     H327983   4.368   0.491   4.932
  500DIO     H427984   4.116   0.463   4.942
  500DIO     H527985   4.117   0.568   5.367
  500DIO     H627986   3.508   0.318   5.037
  500DIO     H727987   3.496   0.396   5.469
  500DIO     H827988   3.339   0.208   5.280
  500DIO     H927989   3.303   0.516   5.081
  500DIO    H1027990   3.163   0.446   5.003
  500DIO    H1127991   3.105   0.614   5.185
  500DIO    H1227992   3.147   0.535   5.423
  500DIO    H1327993   3.294   0.571   5.333
  500DIO    H1427994   3.014   0.329   5.257
  500DIO    H1527995   2.938   0.478   5.307
  500DIO    H1627996   2.951   0.368   5.022
  500DIO    H1727997   2.812   0.373   5.129
  500DIO    H1827998   2.821   0.626   5.126
  500DIO    H1927999   2.952   0.616   5.006
  500DIO    H2028000   2.792   0.553   4.968
  501DIO     F128001   5.839   4.258   0.149
  501DIO     C128002   5.761   4.160   0.198
  501DIO     C228003   5.617   4.177   0.199
  501DIO     C328004   5.529   4.072   0.255
  501DIO     C428005   5.594   3.950   0.307
  501DIO     C528006   5.738   3.935   0.305
  501DIO     F228007   5.794   3.821   0.349
  501DIO     C628008   5.822   4.039   0.250
  501DIO     F328009   5.956   4.025   0.250
  501DIO     C728010   5.382   4.088   0.258
  501DIO     C828011   5.305   4.065   0.383
  501DIO     C928012   5.160   4.080   0.385
  501DIO    C1028013   5.088   4.108   0.263
  501DIO    C1128014   5.160   4.138   0.141
  501DIO    C1228015   5.304   4.126   0.139
  501DIO     F428016   5.369   4.149   0.023
  501DIO     O128017   4.956   4.145   0.277
  501DIO    C1328018   4.861   4.109   0.182
  501DIO     O228019   4.860   4.022   0.091
  501DIO    C1428020   4.732   4.175   0.202
  501DIO    C1528021   4.666   4.178   0.334
  501DIO     F528022   4.728   4.126   0.442
  501DIO    C1628023   4.535   4.237   0.355
  501DIO    C1728024   4.459   4.291   0.243
  501DIO    C1828025   4.528   4.305   0.115
  501DIO    C1928026   4.659   4.247   0.095
  501DIO     F628027   4.722   4.277  -0.021
  501DIO    C2028028   4.318   4.343   0.261
  501DIO     O328029   4.249   4.283   0.371
  501DIO    C2128030   4.205   4.151   0.343
  501DIO    C2228031   4.116   4.148   0.219
  501DIO    C2328032   4.197   4.210   0.106
  501DIO     O428033   4.241   4.341   0.141
  501DIO    C2428034   3.983   4.224   0.238
  501DIO    C2528035   3.893   4.174   0.351
  501DIO    C2628036   3.854   4.028   0.339
  501DIO     H128037   5.575   4.267   0.159
  501DIO     H228038   5.533   3.866   0.340
  501DIO     H328039   5.357   4.042   0.475
  501DIO     H428040   5.105   4.072   0.478
  501DIO     H528041   5.106   4.165   0.051
  501DIO     H628042   4.497   4.243   0.457
  501DIO     H728043   4.485   4.364   0.035
  501DIO     H828044   4.328   4.449   0.288
  501DIO     H928045   4.292   4.085   0.330
  501DIO    H1028046   4.152   4.113   0.431
  501DIO    H1128047   4.094   4.044   0.193
  501DIO    H1228048   4.136   4.219   0.015
  501DIO    H1328049   4.283   4.147   0.080
  501DIO    H1428050   4.003   4.331   0.255
  501DIO    H1528051   3.927   4.219   0.144
  501DIO    H1628052   3.940   4.192   0.448
  501DIO    H1728053   3.801   4.235   0.350
  501DIO    H1828054   3.810   4.006   0.241
  501DIO    H1928055   3.941   3.962   0.353
  501DIO    H2028056   3.781   4.002   0.416
  502DIO     F128057   1.497   2.607   7.244
  502DIO     C128058   1.419   2.634   7.350
  502DIO     C228059   1.275   2.639   7.334
  502DIO     C328060   1.186   2.671   7.448
  502DIO     C428061   1.252   2.695   7.579
  502DIO     C528062   1.396   2.689   7.593
  502DIO     F228063   1.452   2.707   7.714
  502DIO     C628064   1.480   2.659   7.479
  502DIO     F328065   1.614   2.655   7.493
  502DIO     C728066   1.040   2.677   7.434
  502DIO     C828067   0.963   2.793   7.483
  502DIO     C928068   0.818   2.799   7.469
  502DIO    C1028069   0.746   2.686   7.415
  502DIO    C1128070   0.818   2.573   7.358
  502DIO    C1228071   0.962   2.569   7.370
  502DIO     F428072   1.027   2.461   7.322
  502DIO     O128073   0.613   2.708   7.382
  502DIO    C1328074   0.519   2.607   7.396
  502DIO     O228075   0.518   2.499   7.461
  502DIO    C1428076   0.390   2.641   7.336
  502DIO    C1528077   0.323   2.771   7.363
  502DIO     F528078   0.386   2.865   7.436
  502DIO    C1628079   0.193   2.805   7.309
  502DIO    C1728080   0.117   2.707   7.232
  502DIO    C1828081   0.186   2.585   7.190
  502DIO    C1928082   0.317   2.553   7.242
  502DIO     F628083   0.380   2.446   7.188
  502DIO    C2028084  -0.024   2.736   7.185
  502DIO     O328085  -0.094   2.830   7.268
  502DIO    C2128086  -0.137   2.774   7.391
  502DIO    C2228087  -0.226   2.652   7.367
  502DIO    C2328088  -0.145   2.555   7.281
  502DIO     O428089  -0.101   2.618   7.161
  502DIO    C2428090  -0.359   2.687   7.296
  502DIO    C2528091  -0.450   2.786   7.369
  502DIO    C2628092  -0.488   2.743   7.510
  502DIO     H128093   1.233   2.619   7.236
  502DIO     H228094   1.191   2.708   7.668
  502DIO     H328095   1.014   2.878   7.526
  502DIO     H428096   0.763   2.888   7.497
  502DIO     H528097   0.764   2.492   7.313
  502DIO     H628098   0.155   2.905   7.325
  502DIO     H728099   0.143   2.520   7.115
  502DIO     H828100  -0.014   2.785   7.088
  502DIO     H928101  -0.051   2.746   7.452
  502DIO    H1028102  -0.190   2.852   7.447
  502DIO    H1128103  -0.249   2.604   7.463
  502DIO    H1228104  -0.206   2.468   7.253
  502DIO    H1328105  -0.059   2.516   7.337
  502DIO    H1428106  -0.339   2.727   7.196
  502DIO    H1528107  -0.415   2.594   7.281
  502DIO    H1628108  -0.402   2.885   7.374
  502DIO    H1728109  -0.541   2.799   7.311
  502DIO    H1828110  -0.532   2.642   7.509
  502DIO    H1928111  -0.401   2.742   7.577
  502DIO    H2028112  -0.562   2.812   7.552
  503DIO     F128113   8.625   8.236   8.740
  503DIO     C128114   8.548   8.304   8.654
  503DIO     C228115   8.404   8.288   8.660
  503DIO     C328116   8.315   8.360   8.566
  503DIO     C428117   8.380   8.450   8.467
  503DIO     C528118   8.525   8.464   8.463
  503DIO     F228119   8.580   8.549   8.375
  503DIO     C628120   8.608   8.392   8.556
  503DIO     F328121   8.742   8.405   8.551
  503DIO     C728122   8.168   8.345   8.569
  503DIO     C828123   8.091   8.314   8.447
  503DIO     C928124   7.947   8.299   8.450
  503DIO    C1028125   7.874   8.324   8.573
  503DIO    C1128126   7.947   8.348   8.697
  503DIO    C1228127   8.091   8.360   8.694
  503DIO     F428128   8.156   8.387   8.809
  503DIO     O128129   7.742   8.285   8.576
  503DIO    C1328130   7.647   8.357   8.648
  503DIO     O228131   7.646   8.474   8.694
  503DIO    C1428132   7.518   8.288   8.657
  503DIO    C1528133   7.452   8.231   8.537
  503DIO     F528134   7.515   8.233   8.418
  503DIO    C1628135   7.321   8.169   8.543
  503DIO    C1728136   7.245   8.166   8.668
  503DIO    C1828137   7.314   8.206   8.790
  503DIO    C1928138   7.446   8.268   8.784
  503DIO     F628139   7.508   8.289   8.902
  503DIO    C2028140   7.105   8.112   8.673
  503DIO     O328141   7.035   8.120   8.548
  503DIO    C2128142   6.991   8.252   8.518
  503DIO    C2228143   6.902   8.307   8.630
  503DIO    C2328144   6.983   8.297   8.759
  503DIO     O428145   7.027   8.164   8.781
  503DIO    C2428146   6.770   8.229   8.644
  503DIO    C2528147   6.679   8.227   8.521
  503DIO    C2628148   6.640   8.366   8.471
  503DIO     H128149   8.361   8.223   8.735
  503DIO     H228150   8.320   8.512   8.402
  503DIO     H328151   8.143   8.296   8.353
  503DIO     H428152   7.892   8.268   8.363
  503DIO     H528153   7.892   8.361   8.790
  503DIO     H628154   7.283   8.121   8.454
  503DIO     H728155   7.271   8.186   8.887
  503DIO     H828156   7.114   8.004   8.693
  503DIO     H928157   7.078   8.317   8.503
  503DIO    H1028158   6.938   8.249   8.423
  503DIO    H1128159   6.880   8.412   8.610
  503DIO    H1228160   6.922   8.327   8.845
  503DIO    H1328161   7.069   8.365   8.756
  503DIO    H1428162   6.789   8.125   8.673
  503DIO    H1528163   6.713   8.273   8.728
  503DIO    H1628164   6.726   8.171   8.440
  503DIO    H1728165   6.587   8.173   8.547
  503DIO    H1828166   6.597   8.426   8.551
  503DIO    H1928167   6.727   8.419   8.431
  503DIO    H2028168   6.567   8.357   8.390
  504DIO     F128169   3.454   2.886   0.262
  504DIO     C128170   3.376   2.996   0.267
  504DIO     C228171   3.232   2.982   0.258
  504DIO     C328172   3.143   3.100   0.261
  504DIO     C428173   3.209   3.232   0.276
  504DIO     C528174   3.353   3.244   0.285
  504DIO     F228175   3.408   3.365   0.303
  504DIO     C628176   3.437   3.126   0.281
  504DIO     F328177   3.571   3.138   0.289
  504DIO     C728178   2.997   3.088   0.250
  504DIO     C828179   2.920   3.169   0.154
  504DIO     C928180   2.775   3.158   0.144
  504DIO    C1028181   2.702   3.073   0.236
  504DIO    C1128182   2.775   2.986   0.328
  504DIO    C1228183   2.919   2.996   0.336
  504DIO     F428184   2.984   2.918   0.425
  504DIO     O128185   2.570   3.048   0.206
  504DIO    C1328186   2.476   3.032   0.307
  504DIO     O228187   2.475   3.063   0.429
  504DIO    C1428188   2.347   2.984   0.256
  504DIO    C1528189   2.280   3.048   0.140
  504DIO     F528190   2.343   3.146   0.071
  504DIO    C1628191   2.150   3.006   0.092
  504DIO    C1728192   2.074   2.904   0.163
  504DIO    C1828193   2.143   2.828   0.267
  504DIO    C1928194   2.274   2.869   0.314
  504DIO     F628195   2.337   2.786   0.400
  504DIO    C2028196   1.933   2.868   0.122
  504DIO     O328197   1.863   2.974   0.056
  504DIO    C2128198   1.820   3.075   0.146
  504DIO    C2228199   1.731   3.017   0.255
  504DIO    C2328200   1.812   2.907   0.323
  504DIO     O428201   1.856   2.810   0.228
  504DIO    C2428202   1.598   2.960   0.201
  504DIO    C2528203   1.507   3.059   0.127
  504DIO    C2628204   1.469   3.180   0.210
  504DIO     H128205   3.189   2.883   0.249
  504DIO     H228206   3.148   3.322   0.289
  504DIO     H328207   2.971   3.235   0.085
  504DIO     H428208   2.720   3.211   0.067
  504DIO     H528209   2.721   2.919   0.393
  504DIO     H628210   2.111   3.051   0.001
  504DIO     H728211   2.100   2.738   0.308
  504DIO     H828212   1.943   2.789   0.047
  504DIO     H928213   1.906   3.126   0.189
  504DIO    H1028214   1.767   3.151   0.087
  504DIO    H1128215   1.708   3.095   0.329
  504DIO    H1228216   1.750   2.854   0.397
  504DIO    H1328217   1.898   2.948   0.377
  504DIO    H1428218   1.618   2.875   0.133
  504DIO    H1528219   1.542   2.918   0.285
  504DIO    H1628220   1.555   3.091   0.034
  504DIO    H1728221   1.416   3.006   0.098
  504DIO    H1828222   1.425   3.151   0.306
  504DIO    H1928223   1.555   3.244   0.230
  504DIO    H2028224   1.395   3.241   0.156
  505DIO     F128225   5.222   9.377   6.079
  505DIO     C128226   5.145   9.345   6.185
  505DIO     C228227   5.000   9.358   6.173
  505DIO     C328228   4.912   9.326   6.287
  505DIO     C428229   4.977   9.279   6.412
  505DIO     C528230   5.121   9.267   6.421
  505DIO     F228231   5.177   9.220   6.534
  505DIO     C628232   5.205   9.300   6.308
  505DIO     F328233   5.339   9.290   6.318
  505DIO     C728234   4.765   9.339   6.278
  505DIO     C828235   4.688   9.413   6.380
  505DIO     C928236   4.543   9.425   6.372
  505DIO    C1028237   4.471   9.356   6.267
  505DIO    C1128238   4.543   9.289   6.160
  505DIO    C1228239   4.687   9.279   6.168
  505DIO     F428240   4.752   9.211   6.071
  505DIO     O128241   4.339   9.392   6.250
  505DIO    C1328242   4.244   9.298   6.210
  505DIO     O228243   4.243   9.172   6.210
  505DIO    C1428244   4.115   9.359   6.176
  505DIO    C1528245   4.049   9.456   6.266
  505DIO     F528246   4.111   9.499   6.378
  505DIO    C1628247   3.918   9.512   6.237
  505DIO    C1728248   3.842   9.468   6.121
  505DIO    C1828249   3.911   9.386   6.022
  505DIO    C1928250   4.043   9.331   6.050
  505DIO     F628251   4.105   9.268   5.948
  505DIO    C2028252   3.701   9.517   6.096
  505DIO     O328253   3.632   9.556   6.215
  505DIO    C2128254   3.588   9.444   6.291
  505DIO    C2228255   3.499   9.352   6.208
  505DIO    C2328256   3.580   9.313   6.084
  505DIO     O428257   3.624   9.429   6.014
  505DIO    C2428258   3.366   9.419   6.166
  505DIO    C2528259   3.276   9.466   6.280
  505DIO    C2628260   3.237   9.356   6.377
  505DIO     H128261   4.958   9.391   6.079
  505DIO     H228262   4.917   9.245   6.495
  505DIO     H328263   4.740   9.464   6.461
  505DIO     H428264   4.488   9.487   6.442
  505DIO     H528265   4.489   9.242   6.079
  505DIO     H628266   3.880   9.590   6.303
  505DIO     H728267   3.868   9.369   5.924
  505DIO     H828268   3.711   9.610   6.037
  505DIO     H928269   3.675   9.389   6.330
  505DIO    H1028270   3.535   9.482   6.379
  505DIO    H1128271   3.477   9.261   6.265
  505DIO    H1228272   3.519   9.254   6.015
  505DIO    H1328273   3.666   9.251   6.112
  505DIO    H1428274   3.386   9.505   6.100
  505DIO    H1528275   3.310   9.347   6.105
  505DIO    H1628276   3.323   9.548   6.334
  505DIO    H1728277   3.184   9.507   6.236
  505DIO    H1828278   3.193   9.270   6.325
  505DIO    H1928279   3.324   9.321   6.434
  505DIO    H2028280   3.164   9.393   6.449
  506DIO     F128281   1.883   9.436   7.855
  506DIO     C128282   1.805   9.373   7.765
  506DIO     C228283   1.661   9.375   7.782
  506DIO     C328284   1.572   9.305   7.686
  506DIO     C428285   1.638   9.236   7.572
  506DIO     C528286   1.782   9.236   7.558
  506DIO     F228287   1.837   9.176   7.450
  506DIO     C628288   1.866   9.305   7.653
  506DIO     F328289   2.000   9.303   7.639
  506DIO     C728290   1.426   9.304   7.702
  506DIO     C828291   1.349   9.178   7.697
  506DIO     C928292   1.204   9.177   7.712
  506DIO    C1028293   1.131   9.302   7.723
  506DIO    C1128294   1.204   9.427   7.736
  506DIO    C1228295   1.348   9.428   7.723
  506DIO     F428296   1.413   9.546   7.730
  506DIO     O128297   0.999   9.293   7.761
  506DIO    C1328298   0.905   9.383   7.712
  506DIO     O228299   0.904   9.461   7.613
  506DIO    C1428300   0.776   9.372   7.781
  506DIO    C1528301   0.709   9.241   7.802
  506DIO     F528302   0.772   9.127   7.766
  506DIO    C1628303   0.579   9.228   7.863
  506DIO    C1728304   0.503   9.347   7.901
  506DIO    C1828305   0.572   9.476   7.898
  506DIO    C1928306   0.703   9.488   7.837
  506DIO     F628307   0.766   9.607   7.851
  506DIO    C2028308   0.362   9.336   7.955
  506DIO     O328309   0.292   9.219   7.911
  506DIO    C2128310   0.249   9.229   7.776
  506DIO    C2228311   0.160   9.351   7.756
  506DIO    C2328312   0.241   9.472   7.802
  506DIO     O428313   0.285   9.456   7.936
  506DIO    C2428314   0.027   9.343   7.834
  506DIO    C2528315  -0.064   9.224   7.801
  506DIO    C2628316  -0.102   9.216   7.654
  506DIO     H128317   1.618   9.428   7.866
  506DIO     H228318   1.577   9.192   7.494
  506DIO     H328319   1.400   9.083   7.687
  506DIO     H428320   1.149   9.084   7.717
  506DIO     H528321   1.150   9.520   7.749
  506DIO     H628322   0.540   9.129   7.884
  506DIO     H728323   0.529   9.563   7.945
  506DIO     H828324   0.372   9.325   8.064
  506DIO     H928325   0.335   9.232   7.709
  506DIO    H1028326   0.196   9.136   7.752
  506DIO    H1128327   0.137   9.362   7.649
  506DIO    H1228328   0.179   9.563   7.798
  506DIO    H1328329   0.327   9.489   7.736
  506DIO    H1428330   0.047   9.341   7.942
  506DIO    H1528331  -0.029   9.435   7.816
  506DIO    H1628332  -0.016   9.130   7.832
  506DIO    H1728333  -0.155   9.233   7.860
  506DIO    H1828334  -0.146   9.310   7.619
  506DIO    H1928335  -0.016   9.192   7.591
  506DIO    H2028336  -0.176   9.136   7.639
  507DIO     F128337   9.129   6.327   8.454
  507DIO     C128338   9.051   6.437   8.452
  507DIO     C228339   8.907   6.422   8.444
  507DIO     C328340   8.818   6.540   8.439
  507DIO     C428341   8.884   6.673   8.446
  507DIO     C528342   9.028   6.685   8.454
  507DIO     F228343   9.084   6.807   8.465
  507DIO     C628344   9.112   6.568   8.458
  507DIO     F328345   9.246   6.580   8.465
  507DIO     C728346   8.672   6.527   8.430
  507DIO     C828347   8.595   6.602   8.328
  507DIO     C928348   8.450   6.590   8.319
  507DIO    C1028349   8.378   6.511   8.417
  507DIO    C1128350   8.450   6.431   8.513
  507DIO    C1228351   8.594   6.441   8.521
  507DIO     F428352   8.659   6.369   8.615
  507DIO     O128353   8.245   6.485   8.388
  507DIO    C1328354   8.151   6.475   8.490
  507DIO     O228355   8.150   6.513   8.610
  507DIO    C1428356   8.022   6.424   8.442
  507DIO    C1528357   7.955   6.480   8.322
  507DIO     F528358   8.018   6.573   8.247
  507DIO    C1628359   7.825   6.436   8.277
  507DIO    C1728360   7.749   6.338   8.355
  507DIO    C1828361   7.818   6.269   8.463
  507DIO    C1928362   7.949   6.313   8.507
  507DIO     F628363   8.012   6.235   8.598
  507DIO    C2028364   7.608   6.299   8.316
  507DIO     O328365   7.538   6.401   8.243
  507DIO    C2128366   7.495   6.508   8.326
  507DIO    C2228367   7.406   6.457   8.439
  507DIO    C2328368   7.487   6.351   8.514
  507DIO     O428369   7.531   6.249   8.425
  507DIO    C2428370   7.273   6.396   8.388
  507DIO    C2528371   7.182   6.490   8.309
  507DIO    C2628372   7.144   6.617   8.384
  507DIO     H128373   8.865   6.322   8.441
  507DIO     H228374   8.823   6.763   8.453
  507DIO     H328375   8.646   6.663   8.255
  507DIO     H428376   8.395   6.638   8.239
  507DIO     H528377   8.396   6.368   8.583
  507DIO     H628378   7.787   6.474   8.183
  507DIO     H728379   7.775   6.181   8.510
  507DIO     H828380   7.618   6.216   8.246
  507DIO     H928381   7.581   6.561   8.366
  507DIO    H1028382   7.442   6.580   8.263
  507DIO    H1128383   7.383   6.539   8.508
  507DIO    H1228384   7.426   6.303   8.591
  507DIO    H1328385   7.573   6.396   8.564
  507DIO    H1428386   7.293   6.308   8.326
  507DIO    H1528387   7.217   6.360   8.475
  507DIO    H1628388   7.230   6.517   8.213
  507DIO    H1728389   7.091   6.436   8.283
  507DIO    H1828390   7.100   6.593   8.481
  507DIO    H1928391   7.231   6.682   8.399
  507DIO    H2028392   7.070   6.673   8.326
  508DIO     F128393   1.318  -0.452   7.949
  508DIO     C128394   1.241  -0.559   7.920
  508DIO     C228395   1.097  -0.547   7.932
  508DIO     C328396   1.008  -0.662   7.904
  508DIO     C428397   1.073  -0.788   7.861
  508DIO     C528398   1.218  -0.797   7.849
  508DIO     F228399   1.273  -0.912   7.806
  508DIO     C628400   1.301  -0.683   7.878
  508DIO     F328401   1.435  -0.693   7.869
  508DIO     C728402   0.861  -0.652   7.917
  508DIO     C828403   0.784  -0.752   7.994
  508DIO     C928404   0.640  -0.743   8.006
  508DIO    C1028405   0.567  -0.640   7.934
  508DIO    C1128406   0.639  -0.536   7.863
  508DIO    C1228407   0.784  -0.544   7.853
  508DIO     F428408   0.848  -0.449   7.783
  508DIO     O128409   0.435  -0.623   7.969
  508DIO    C1328410   0.340  -0.585   7.874
  508DIO     O228411   0.339  -0.589   7.748
  508DIO    C1428412   0.211  -0.550   7.934
  508DIO    C1528413   0.145  -0.636   8.033
  508DIO     F528414   0.207  -0.747   8.079
  508DIO    C1628415   0.014  -0.606   8.089
  508DIO    C1728416  -0.062  -0.491   8.042
  508DIO    C1828417   0.007  -0.395   7.956
  508DIO    C1928418   0.139  -0.424   7.902
  508DIO     F628419   0.201  -0.325   7.836
  508DIO    C2028420  -0.202  -0.465   8.090
  508DIO     O328421  -0.272  -0.583   8.131
  508DIO    C2128422  -0.316  -0.662   8.022
  508DIO    C2228423  -0.405  -0.582   7.928
  508DIO    C2328424  -0.324  -0.459   7.885
  508DIO     O428425  -0.280  -0.386   7.999
  508DIO    C2428426  -0.538  -0.537   7.993
  508DIO    C2528427  -0.628  -0.650   8.044
  508DIO    C2628428  -0.667  -0.751   7.936
  508DIO     H128429   1.054  -0.452   7.963
  508DIO     H228430   1.013  -0.872   7.829
  508DIO     H328431   0.836  -0.831   8.047
  508DIO     H428432   0.584  -0.811   8.069
  508DIO     H528433   0.585  -0.456   7.814
  508DIO     H628434  -0.024  -0.670   8.168
  508DIO     H728435  -0.036  -0.298   7.936
  508DIO     H828436  -0.193  -0.404   8.180
  508DIO     H928437  -0.229  -0.702   7.968
  508DIO    H1028438  -0.369  -0.749   8.062
  508DIO    H1128439  -0.427  -0.642   7.839
  508DIO    H1228440  -0.385  -0.392   7.824
  508DIO    H1328441  -0.238  -0.489   7.824
  508DIO    H1428442  -0.518  -0.470   8.077
  508DIO    H1528443  -0.594  -0.478   7.919
  508DIO    H1628444  -0.581  -0.702   8.128
  508DIO    H1728445  -0.720  -0.605   8.083
  508DIO    H1828446  -0.711  -0.701   7.849
  508DIO    H1928447  -0.580  -0.809   7.903
  508DIO    H2028448  -0.740  -0.821   7.976
  509DIO     F128449   5.701   0.089   7.176
  509DIO     C128450   5.623  -0.020   7.158
  509DIO     C228451   5.479  -0.007   7.169
  509DIO     C328452   5.390  -0.124   7.153
  509DIO     C428453   5.456  -0.254   7.123
  509DIO     C528454   5.600  -0.264   7.112
  509DIO     F228455   5.655  -0.383   7.081
  509DIO     C628456   5.684  -0.148   7.129
  509DIO     F328457   5.817  -0.159   7.121
  509DIO     C728458   5.244  -0.113   7.164
  509DIO     C828459   5.167  -0.205   7.251
  509DIO     C928460   5.022  -0.194   7.263
  509DIO    C1028461   4.949  -0.100   7.180
  509DIO    C1128462   5.022  -0.003   7.099
  509DIO    C1228463   5.166  -0.012   7.090
  509DIO     F428464   5.231   0.075   7.010
  509DIO     O128465   4.817  -0.079   7.213
  509DIO    C1328466   4.723  -0.051   7.115
  509DIO     O228467   4.722  -0.068   6.990
  509DIO    C1428468   4.594  -0.009   7.171
  509DIO    C1528469   4.527  -0.085   7.279
  509DIO     F528470   4.590  -0.191   7.336
  509DIO    C1628471   4.396  -0.050   7.331
  509DIO    C1728472   4.321   0.060   7.272
  509DIO    C1828473   4.389   0.147   7.177
  509DIO    C1928474   4.521   0.112   7.126
  509DIO     F628475   4.584   0.204   7.050
  509DIO    C2028476   4.180   0.091   7.317
  509DIO     O328477   4.110  -0.022   7.371
  509DIO    C2128478   4.067  -0.113   7.270
  509DIO    C2228479   3.978  -0.042   7.168
  509DIO    C2328480   4.058   0.075   7.113
  509DIO     O428481   4.103   0.160   7.218
  509DIO    C2428482   3.845   0.009   7.228
  509DIO    C2528483   3.754  -0.098   7.290
  509DIO    C2628484   3.716  -0.209   7.194
  509DIO     H128485   5.436   0.091   7.190
  509DIO     H228486   5.395  -0.341   7.100
  509DIO     H328487   5.218  -0.278   7.312
  509DIO     H428488   4.967  -0.256   7.332
  509DIO     H528489   4.967   0.071   7.042
  509DIO     H628490   4.358  -0.105   7.416
  509DIO     H728491   4.347   0.241   7.147
  509DIO     H828492   4.190   0.161   7.401
  509DIO     H928493   4.153  -0.158   7.221
  509DIO    H1028494   4.014  -0.195   7.319
  509DIO    H1128495   3.955  -0.111   7.086
  509DIO    H1228496   3.997   0.136   7.045
  509DIO    H1328497   4.145   0.040   7.055
  509DIO    H1428498   3.865   0.085   7.305
  509DIO    H1528499   3.788   0.060   7.149
  509DIO    H1628500   3.802  -0.141   7.379
  509DIO    H1728501   3.662  -0.049   7.325
  509DIO    H1828502   3.672  -0.169   7.102
  509DIO    H1928503   3.802  -0.271   7.167
  509DIO    H2028504   3.642  -0.275   7.241
  510DIO     F128505   2.487   2.109   5.125
  510DIO     C128506   2.409   2.217   5.101
  510DIO     C228507   2.265   2.200   5.096
  510DIO     C328508   2.176   2.315   5.067
  510DIO     C428509   2.242   2.447   5.047
  510DIO     C528510   2.386   2.460   5.053
  510DIO     F228511   2.441   2.582   5.038
  510DIO     C628512   2.470   2.346   5.080
  510DIO     F328513   2.603   2.359   5.084
  510DIO     C728514   2.030   2.301   5.061
  510DIO     C828515   1.953   2.353   4.946
  510DIO     C928516   1.808   2.340   4.939
  510DIO    C1028517   1.735   2.282   5.051
  510DIO    C1128518   1.808   2.223   5.162
  510DIO    C1228519   1.952   2.234   5.167
  510DIO     F428520   2.017   2.183   5.274
  510DIO     O128521   1.603   2.251   5.028
  510DIO    C1328522   1.509   2.262   5.130
  510DIO     O228523   1.508   2.323   5.239
  510DIO    C1428524   1.379   2.202   5.093
  510DIO    C1528525   1.313   2.232   4.965
  510DIO     F528526   1.376   2.309   4.873
  510DIO    C1628527   1.182   2.180   4.930
  510DIO    C1728528   1.107   2.100   5.025
  510DIO    C1828529   1.175   2.055   5.146
  510DIO    C1928530   1.307   2.106   5.180
  510DIO     F628531   1.369   2.049   5.285
  510DIO    C2028532   0.966   2.054   4.995
  510DIO     O328533   0.896   2.139   4.903
  510DIO    C2128534   0.852   2.261   4.963
  510DIO    C2228535   0.764   2.233   5.084
  510DIO    C2328536   0.844   2.145   5.179
  510DIO     O428537   0.889   2.027   5.112
  510DIO    C2428538   0.631   2.164   5.047
  510DIO    C2528539   0.540   2.240   4.949
  510DIO    C2628540   0.502   2.379   4.997
  510DIO     H128541   2.222   2.102   5.113
  510DIO     H228542   2.181   2.536   5.036
  510DIO     H328543   2.004   2.399   4.862
  510DIO     H428544   1.753   2.371   4.851
  510DIO     H528545   1.753   2.175   5.242
  510DIO     H628546   1.144   2.199   4.830
  510DIO     H728547   1.132   1.978   5.209
  510DIO     H828548   0.976   1.958   4.943
  510DIO     H928549   0.939   2.321   4.992
  510DIO    H1028550   0.800   2.319   4.886
  510DIO    H1128551   0.741   2.328   5.134
  510DIO    H1228552   0.783   2.114   5.264
  510DIO    H1328553   0.930   2.199   5.219
  510DIO    H1428554   0.651   2.065   5.004
  510DIO    H1528555   0.574   2.146   5.139
  510DIO    H1628556   0.587   2.247   4.851
  510DIO    H1728557   0.448   2.181   4.935
  510DIO    H1828558   0.458   2.376   5.097
  510DIO    H1928559   0.588   2.446   4.999
  510DIO    H2028560   0.428   2.423   4.929
  511DIO     F128561   9.477  -0.201   2.508
  511DIO     C128562   9.399  -0.272   2.423
  511DIO     C228563   9.255  -0.269   2.440
  511DIO     C328564   9.166  -0.347   2.351
  511DIO     C428565   9.232  -0.426   2.244
  511DIO     C528566   9.376  -0.427   2.229
  511DIO     F228567   9.431  -0.496   2.128
  511DIO     C628568   9.460  -0.350   2.318
  511DIO     F328569   9.594  -0.353   2.304
  511DIO     C728570   9.020  -0.347   2.367
  511DIO     C828571   8.943  -0.473   2.373
  511DIO     C928572   8.798  -0.472   2.388
  511DIO    C1028573   8.725  -0.347   2.388
  511DIO    C1128574   8.798  -0.221   2.390
  511DIO    C1228575   8.942  -0.222   2.377
  511DIO     F428576   9.007  -0.103   2.374
  511DIO     O128577   8.593  -0.352   2.427
  511DIO    C1328578   8.499  -0.267   2.370
  511DIO     O228579   8.498  -0.198   2.265
  511DIO    C1428580   8.370  -0.272   2.440
  511DIO    C1528581   8.303  -0.401   2.472
  511DIO     F528582   8.366  -0.517   2.446
  511DIO    C1628583   8.173  -0.408   2.534
  511DIO    C1728584   8.097  -0.286   2.562
  511DIO    C1828585   8.166  -0.158   2.547
  511DIO    C1928586   8.297  -0.152   2.486
  511DIO     F628587   8.360  -0.032   2.488
  511DIO    C2028588   7.956  -0.292   2.616
  511DIO     O328589   7.886  -0.413   2.583
  511DIO    C2128590   7.843  -0.415   2.447
  511DIO    C2228591   7.754  -0.295   2.416
  511DIO    C2328592   7.835  -0.170   2.451
  511DIO     O428593   7.879  -0.175   2.587
  511DIO    C2428594   7.621  -0.296   2.495
  511DIO    C2528595   7.530  -0.417   2.472
  511DIO    C2628596   7.492  -0.439   2.327
  511DIO     H128597   9.212  -0.209   2.519
  511DIO     H228598   9.171  -0.477   2.169
  511DIO     H328599   8.994  -0.568   2.371
  511DIO     H428600   8.743  -0.564   2.401
  511DIO     H528601   8.744  -0.127   2.395
  511DIO     H628602   8.134  -0.505   2.563
  511DIO     H728603   8.123  -0.067   2.586
  511DIO     H828604   7.966  -0.294   2.725
  511DIO     H928605   7.929  -0.417   2.381
  511DIO    H1028606   7.790  -0.510   2.431
  511DIO    H1128607   7.731  -0.293   2.309
  511DIO    H1228608   7.773  -0.080   2.440
  511DIO    H1328609   7.921  -0.159   2.384
  511DIO    H1428610   7.641  -0.289   2.603
  511DIO    H1528611   7.565  -0.206   2.469
  511DIO    H1628612   7.578  -0.508   2.511
  511DIO    H1728613   7.439  -0.403   2.531
  511DIO    H1828614   7.448  -0.348   2.284
  511DIO    H1928615   7.578  -0.468   2.266
  511DIO    H2028616   7.418  -0.519   2.319
  512DIO     F128617   9.554   4.423   9.018
  512DIO     C128618   9.476   4.334   9.082
  512DIO     C228619   9.332   4.350   9.081
  512DIO     C328620   9.243   4.256   9.152
  512DIO     C428621   9.309   4.142   9.221
  512DIO     C528622   9.453   4.128   9.221
  512DIO     F228623   9.508   4.021   9.282
  512DIO     C628624   9.537   4.222   9.152
  512DIO     F328625   9.670   4.208   9.153
  512DIO     C728626   9.097   4.272   9.152
  512DIO     C828627   9.020   4.268   9.279
  512DIO     C928628   8.875   4.283   9.279
  512DIO    C1028629   8.802   4.292   9.154
  512DIO    C1128630   8.875   4.304   9.029
  512DIO    C1228631   9.019   4.291   9.028
  512DIO     F428632   9.084   4.297   8.910
  512DIO     O128633   8.670   4.330   9.163
  512DIO    C1328634   8.576   4.281   9.073
  512DIO     O228635   8.575   4.181   8.996
  512DIO    C1428636   8.447   4.350   9.084
  512DIO    C1528637   8.380   4.372   9.214
  512DIO     F528638   8.443   4.337   9.329
  512DIO    C1628639   8.249   4.434   9.226
  512DIO    C1728640   8.174   4.470   9.107
  512DIO    C1828641   8.242   4.465   8.979
  512DIO    C1928642   8.374   4.405   8.967
  512DIO     F628643   8.437   4.417   8.848
  512DIO    C2028644   8.033   4.524   9.117
  512DIO     O328645   7.963   4.482   9.235
  512DIO    C2128646   7.920   4.346   9.227
  512DIO    C2228647   7.831   4.325   9.105
  512DIO    C2328648   7.911   4.369   8.983
  512DIO     O428649   7.956   4.504   8.998
  512DIO    C2428650   7.698   4.403   9.112
  512DIO    C2528651   7.607   4.371   9.231
  512DIO    C2628652   7.569   4.224   9.241
  512DIO     H128653   9.289   4.434   9.027
  512DIO     H228654   9.248   4.064   9.267
  512DIO     H328655   9.071   4.258   9.373
  512DIO     H428656   8.820   4.288   9.372
  512DIO     H528657   8.820   4.317   8.936
  512DIO     H628658   8.211   4.455   9.325
  512DIO     H728659   8.200   4.511   8.891
  512DIO     H828660   8.043   4.633   9.127
  512DIO     H928661   8.006   4.279   9.224
  512DIO    H1028662   7.867   4.323   9.320
  512DIO    H1128663   7.808   4.218   9.095
  512DIO    H1228664   7.850   4.365   8.892
  512DIO    H1328665   7.998   4.303   8.967
  512DIO    H1428666   7.718   4.511   9.113
  512DIO    H1528667   7.641   4.384   9.020
  512DIO    H1628668   7.655   4.403   9.325
  512DIO    H1728669   7.515   4.430   9.222
  512DIO    H1828670   7.525   4.188   9.148
  512DIO    H1928671   7.655   4.162   9.265
  512DIO    H2028672   7.495   4.210   9.321
  513DIO     F128673   6.495   5.331   0.694
  513DIO     C128674   6.418   5.241   0.757
  513DIO     C228675   6.274   5.258   0.756
  513DIO     C328676   6.185   5.163   0.826
  513DIO     C428677   6.250   5.049   0.895
  513DIO     C528678   6.395   5.034   0.895
  513DIO     F228679   6.450   4.927   0.956
  513DIO     C628680   6.478   5.130   0.826
  513DIO     F328681   6.612   5.115   0.828
  513DIO     C728682   6.038   5.179   0.827
  513DIO     C828683   5.961   5.174   0.953
  513DIO     C928684   5.817   5.189   0.954
  513DIO    C1028685   5.744   5.199   0.829
  513DIO    C1128686   5.817   5.212   0.703
  513DIO    C1228687   5.961   5.199   0.703
  513DIO     F428688   6.026   5.206   0.585
  513DIO     O128689   5.612   5.237   0.838
  513DIO    C1328690   5.517   5.188   0.748
  513DIO     O228691   5.516   5.089   0.670
  513DIO    C1428692   5.388   5.257   0.759
  513DIO    C1528693   5.322   5.279   0.889
  513DIO     F528694   5.385   5.243   1.004
  513DIO    C1628695   5.191   5.340   0.902
  513DIO    C1728696   5.115   5.378   0.783
  513DIO    C1828697   5.184   5.373   0.654
  513DIO    C1928698   5.316   5.313   0.642
  513DIO     F628699   5.378   5.326   0.523
  513DIO    C2028700   4.975   5.431   0.793
  513DIO     O328701   4.905   5.388   0.911
  513DIO    C2128702   4.861   5.253   0.902
  513DIO    C2228703   4.772   5.232   0.780
  513DIO    C2328704   4.853   5.277   0.658
  513DIO     O428705   4.897   5.412   0.674
  513DIO    C2428706   4.640   5.311   0.787
  513DIO    C2528707   4.549   5.278   0.906
  513DIO    C2628708   4.510   5.131   0.915
  513DIO     H128709   6.231   5.342   0.702
  513DIO     H228710   6.190   4.971   0.940
  513DIO     H328711   6.013   5.164   1.048
  513DIO     H428712   5.762   5.194   1.047
  513DIO     H528713   5.762   5.225   0.611
  513DIO     H628714   5.153   5.361   1.001
  513DIO     H728715   5.141   5.420   0.566
  513DIO     H828716   4.984   5.540   0.804
  513DIO     H928717   4.948   5.186   0.898
  513DIO    H1028718   4.808   5.229   0.995
  513DIO    H1128719   4.750   5.125   0.769
  513DIO    H1228720   4.792   5.273   0.568
  513DIO    H1328721   4.939   5.212   0.642
  513DIO    H1428722   4.659   5.419   0.789
  513DIO    H1528723   4.583   5.292   0.695
  513DIO    H1628724   4.596   5.309   1.000
  513DIO    H1728725   4.457   5.337   0.897
  513DIO    H1828726   4.467   5.095   0.822
  513DIO    H1928727   4.597   5.068   0.939
  513DIO    H2028728   4.437   5.116   0.995
  514DIO     F128729   5.366   9.982   8.069
  514DIO     C128730   5.288  10.004   8.177
  514DIO     C228731   5.144  10.009   8.161
  514DIO     C328732   5.055  10.035   8.276
  514DIO     C428733   5.121  10.053   8.408
  514DIO     C528734   5.265  10.047   8.422
  514DIO     F228735   5.320  10.059   8.544
  514DIO     C628736   5.349  10.022   8.307
  514DIO     F328737   5.483  10.018   8.320
  514DIO     C728738   4.909  10.042   8.262
  514DIO     C828739   4.832  10.156   8.317
  514DIO     C928740   4.687  10.163   8.304
  514DIO    C1028741   4.614  10.052   8.244
  514DIO    C1128742   4.687   9.943   8.182
  514DIO    C1228743   4.831   9.937   8.193
  514DIO     F428744   4.896   9.832   8.140
  514DIO     O128745   4.482  10.076   8.213
  514DIO    C1328746   4.388   9.974   8.221
  514DIO     O228747   4.387   9.863   8.281
  514DIO    C1428748   4.259  10.012   8.163
  514DIO    C1528749   4.192  10.140   8.196
  514DIO     F528750   4.255  10.230   8.274
  514DIO    C1628751   4.062  10.176   8.144
  514DIO    C1728752   3.986  10.082   8.062
  514DIO    C1828753   4.055   9.963   8.014
  514DIO    C1928754   4.186   9.928   8.065
  514DIO     F628755   4.249   9.824   8.005
  514DIO    C2028756   3.845  10.114   8.017
  514DIO     O328757   3.775  10.204   8.104
  514DIO    C2128758   3.732  10.141   8.224
  514DIO    C2228759   3.643  10.021   8.194
  514DIO    C2328760   3.724   9.928   8.104
  514DIO     O428761   3.768   9.997   7.987
  514DIO    C2428762   3.510  10.059   8.125
  514DIO    C2528763   3.419  10.155   8.204
  514DIO    C2628764   3.381  10.104   8.342
  514DIO     H128765   5.101   9.994   8.062
  514DIO     H228766   5.060  10.062   8.498
  514DIO     H328767   4.883  10.239   8.364
  514DIO     H428768   4.632  10.250   8.337
  514DIO     H528769   4.633   9.863   8.133
  514DIO     H628770   4.023  10.275   8.166
  514DIO     H728771   4.012   9.901   7.936
  514DIO     H828772   3.855  10.167   7.922
  514DIO     H928773   3.818  10.111   8.284
  514DIO    H1028774   3.679  10.216   8.284
  514DIO    H1128775   3.620   9.968   8.288
  514DIO    H1228776   3.662   9.843   8.071
  514DIO    H1328777   3.810   9.886   8.157
  514DIO    H1428778   3.530  10.105   8.027
  514DIO    H1528779   3.454   9.967   8.105
  514DIO    H1628780   3.467  10.253   8.213
  514DIO    H1728781   3.328  10.171   8.145
  514DIO    H1828782   3.337  10.004   8.336
  514DIO    H1928783   3.467  10.100   8.409
  514DIO    H2028784   3.307  10.171   8.387
  515DIO     F128785   5.177   9.007  -0.618
  515DIO     C128786   5.099   9.025  -0.726
  515DIO     C228787   4.955   9.014  -0.713
  515DIO     C328788   4.866   9.032  -0.830
  515DIO     C428789   4.932   9.063  -0.959
  515DIO     C528790   5.076   9.074  -0.970
  515DIO     F228791   5.132   9.107  -1.088
  515DIO     C628792   5.160   9.056  -0.854
  515DIO     F328793   5.294   9.064  -0.865
  515DIO     C728794   4.720   9.020  -0.820
  515DIO     C828795   4.643   8.934  -0.912
  515DIO     C928796   4.498   8.923  -0.902
  515DIO    C1028797   4.426   9.004  -0.806
  515DIO    C1128798   4.498   9.084  -0.709
  515DIO    C1228799   4.642   9.093  -0.717
  515DIO     F428800   4.707   9.172  -0.629
  515DIO     O128801   4.293   8.971  -0.786
  515DIO    C1328802   4.199   9.069  -0.757
  515DIO     O228803   4.198   9.194  -0.772
  515DIO    C1428804   4.070   9.013  -0.716
  515DIO    C1528805   4.004   8.905  -0.793
  515DIO     F528806   4.066   8.850  -0.899
  515DIO    C1628807   3.873   8.853  -0.758
  515DIO    C1728808   3.797   8.911  -0.648
  515DIO    C1828809   3.866   9.005  -0.560
  515DIO    C1928810   3.997   9.056  -0.594
  515DIO     F628811   4.060   9.131  -0.501
  515DIO    C2028812   3.656   8.865  -0.617
  515DIO     O328813   3.587   8.813  -0.730
  515DIO    C2128814   3.543   8.915  -0.820
  515DIO    C2228815   3.454   9.016  -0.748
  515DIO    C2328816   3.535   9.070  -0.630
  515DIO     O428817   3.579   8.963  -0.547
  515DIO    C2428818   3.321   8.955  -0.698
  515DIO    C2528819   3.231   8.894  -0.806
  515DIO    C2628820   3.192   8.991  -0.916
  515DIO     H128821   4.913   8.993  -0.616
  515DIO     H228822   4.871   9.087  -1.046
  515DIO     H328823   4.694   8.874  -0.986
  515DIO     H428824   4.443   8.854  -0.964
  515DIO     H528825   4.444   9.140  -0.634
  515DIO     H628826   3.835   8.768  -0.814
  515DIO     H728827   3.823   9.034  -0.465
  515DIO     H828828   3.666   8.781  -0.548
  515DIO     H928829   3.630   8.964  -0.865
  515DIO    H1028830   3.490   8.866  -0.903
  515DIO    H1128831   3.431   9.099  -0.816
  515DIO    H1228832   3.474   9.137  -0.569
  515DIO    H1328833   3.621   9.128  -0.665
  515DIO    H1428834   3.341   8.877  -0.623
  515DIO    H1528835   3.265   9.034  -0.646
  515DIO    H1628836   3.278   8.806  -0.850
  515DIO    H1728837   3.139   8.859  -0.757
  515DIO    H1828838   3.148   9.083  -0.875
  515DIO    H1928839   3.279   9.019  -0.977
  515DIO    H2028840   3.118   8.945  -0.982
  516DIO     F128841   6.423   5.130   3.560
  516DIO     C128842   6.345   5.171   3.458
  516DIO     C228843   6.201   5.158   3.468
  516DIO     C328844   6.112   5.200   3.358
  516DIO     C428845   6.178   5.258   3.238
  516DIO     C528846   6.322   5.270   3.230
  516DIO     F228847   6.377   5.328   3.122
  516DIO     C628848   6.406   5.228   3.340
  516DIO     F328849   6.540   5.239   3.331
  516DIO     C728850   5.966   5.186   3.366
  516DIO     C828851   5.889   5.121   3.257
  516DIO     C928852   5.744   5.108   3.264
  516DIO    C1028853   5.671   5.168   3.375
  516DIO    C1128854   5.744   5.225   3.487
  516DIO    C1228855   5.888   5.236   3.481
  516DIO     F428856   5.953   5.294   3.584
  516DIO     O128857   5.539   5.131   3.388
  516DIO    C1328858   5.445   5.220   3.437
  516DIO     O228859   5.444   5.346   3.449
  516DIO    C1428860   5.316   5.157   3.465
  516DIO    C1528861   5.249   5.068   3.367
  516DIO     F528862   5.312   5.036   3.252
  516DIO    C1628863   5.119   5.010   3.390
  516DIO    C1728864   5.043   5.043   3.510
  516DIO    C1828865   5.112   5.116   3.616
  516DIO    C1928866   5.243   5.173   3.593
  516DIO     F628867   5.306   5.226   3.700
  516DIO    C2028868   4.902   4.992   3.531
  516DIO     O328869   4.832   4.964   3.408
  516DIO    C2128870   4.789   5.083   3.343
  516DIO    C2228871   4.700   5.166   3.434
  516DIO    C2328872   4.781   5.194   3.561
  516DIO     O428873   4.825   5.072   3.620
  516DIO    C2428874   4.567   5.096   3.470
  516DIO    C2528875   4.476   5.060   3.352
  516DIO    C2628876   4.438   5.178   3.265
  516DIO     H128877   6.158   5.116   3.559
  516DIO     H228878   6.117   5.300   3.158
  516DIO     H328879   5.940   5.079   3.172
  516DIO     H428880   5.689   5.054   3.189
  516DIO     H528881   5.690   5.264   3.572
  516DIO     H628882   5.080   4.939   3.318
  516DIO     H728883   5.069   5.124   3.715
  516DIO     H828884   4.912   4.894   3.580
  516DIO     H928885   4.875   5.141   3.310
  516DIO    H1028886   4.736   5.053   3.252
  516DIO    H1128887   4.677   5.262   3.385
  516DIO    H1228888   4.719   5.247   3.635
  516DIO    H1328889   4.867   5.258   3.539
  516DIO    H1428890   4.587   5.005   3.527
  516DIO    H1528891   4.511   5.162   3.538
  516DIO    H1628892   4.524   4.983   3.290
  516DIO    H1728893   4.385   5.015   3.392
  516DIO    H1828894   4.394   5.259   3.325
  516DIO    H1928895   4.524   5.218   3.212
  516DIO    H2028896   4.364   5.147   3.190
  517DIO     F128897   3.261  -0.746   0.840
  517DIO     C128898   3.183  -0.753   0.949
  517DIO     C228899   3.039  -0.743   0.935
  517DIO     C328900   2.950  -0.748   1.054
  517DIO     C428901   3.016  -0.765   1.185
  517DIO     C528902   3.160  -0.774   1.197
  517DIO     F228903   3.215  -0.794   1.318
  517DIO     C628904   3.244  -0.769   1.079
  517DIO     F328905   3.377  -0.776   1.091
  517DIO     C728906   2.804  -0.737   1.042
  517DIO     C828907   2.727  -0.642   1.124
  517DIO     C928908   2.582  -0.632   1.113
  517DIO    C1028909   2.509  -0.723   1.027
  517DIO    C1128910   2.582  -0.813   0.938
  517DIO    C1228911   2.726  -0.821   0.948
  517DIO     F428912   2.791  -0.909   0.869
  517DIO     O128913   2.377  -0.692   1.003
  517DIO    C1328914   2.283  -0.793   0.985
  517DIO     O228915   2.282  -0.915   1.013
  517DIO    C1428916   2.153  -0.741   0.938
  517DIO    C1528917   2.087  -0.626   1.003
  517DIO     F528918   2.150  -0.559   1.102
  517DIO    C1628919   1.956  -0.578   0.962
  517DIO    C1728920   1.881  -0.647   0.859
  517DIO    C1828921   1.949  -0.750   0.782
  517DIO    C1928922   2.081  -0.797   0.821
  517DIO     F628923   2.143  -0.882   0.737
  517DIO    C2028924   1.740  -0.605   0.823
  517DIO     O328925   1.670  -0.541   0.931
  517DIO    C2128926   1.626  -0.632   1.031
  517DIO    C2228927   1.538  -0.741   0.970
  517DIO    C2328928   1.618  -0.807   0.859
  517DIO     O428929   1.663  -0.710   0.764
  517DIO    C2428930   1.405  -0.686   0.914
  517DIO    C2528931   1.314  -0.614   1.014
  517DIO    C2628932   1.276  -0.698   1.134
  517DIO     H128933   2.996  -0.732   0.836
  517DIO     H228934   2.955  -0.779   1.274
  517DIO     H328935   2.778  -0.574   1.191
  517DIO     H428936   2.527  -0.556   1.167
  517DIO     H528937   2.527  -0.877   0.870
  517DIO     H628938   1.918  -0.488   1.008
  517DIO     H728939   1.906  -0.789   0.690
  517DIO     H828940   1.750  -0.529   0.745
  517DIO     H928941   1.713  -0.677   1.080
  517DIO    H1028942   1.574  -0.575   1.107
  517DIO    H1128943   1.515  -0.816   1.047
  517DIO    H1228944   1.557  -0.880   0.806
  517DIO    H1328945   1.704  -0.861   0.900
  517DIO    H1428946   1.425  -0.617   0.831
  517DIO    H1528947   1.348  -0.769   0.871
  517DIO    H1628948   1.361  -0.521   1.048
  517DIO    H1728949   1.222  -0.583   0.962
  517DIO    H1828950   1.232  -0.794   1.103
  517DIO    H1928951   1.362  -0.719   1.198
  517DIO    H2028952   1.202  -0.645   1.196
  518DIO     F128953   3.995   8.531   0.432
  518DIO     C128954   3.917   8.640   0.445
  518DIO     C228955   3.773   8.627   0.434
  518DIO     C328956   3.685   8.745   0.445
  518DIO     C428957   3.750   8.876   0.468
  518DIO     C528958   3.894   8.887   0.478
  518DIO     F228959   3.950   9.007   0.504
  518DIO     C628960   3.978   8.770   0.467
  518DIO     F328961   4.112   8.781   0.475
  518DIO     C728962   3.538   8.733   0.434
  518DIO     C828963   3.461   8.820   0.342
  518DIO     C928964   3.316   8.810   0.332
  518DIO    C1028965   3.244   8.719   0.419
  518DIO    C1128966   3.316   8.627   0.504
  518DIO    C1228967   3.460   8.636   0.513
  518DIO     F428968   3.525   8.553   0.597
  518DIO     O128969   3.112   8.696   0.387
  518DIO    C1328970   3.017   8.674   0.486
  518DIO     O228971   3.016   8.697   0.610
  518DIO    C1428972   2.888   8.629   0.433
  518DIO    C1528973   2.822   8.700   0.321
  518DIO     F528974   2.884   8.802   0.259
  518DIO    C1628975   2.691   8.662   0.271
  518DIO    C1728976   2.615   8.555   0.335
  518DIO    C1828977   2.684   8.473   0.434
  518DIO    C1928978   2.815   8.510   0.483
  518DIO     F628979   2.878   8.422   0.564
  518DIO    C2028980   2.474   8.522   0.292
  518DIO     O328981   2.405   8.632   0.232
  518DIO    C2128982   2.361   8.727   0.328
  518DIO    C2228983   2.272   8.662   0.434
  518DIO    C2328984   2.353   8.548   0.495
  518DIO     O428985   2.397   8.457   0.394
  518DIO    C2428986   2.139   8.608   0.376
  518DIO    C2528987   2.049   8.712   0.309
  518DIO    C2628988   2.010   8.828   0.399
  518DIO     H128989   3.731   8.528   0.419
  518DIO     H228990   3.689   8.964   0.487
  518DIO     H328991   3.513   8.890   0.278
  518DIO     H428992   3.261   8.867   0.259
  518DIO     H528993   3.262   8.556   0.565
  518DIO     H628994   2.653   8.712   0.183
  518DIO     H728995   2.641   8.380   0.469
  518DIO     H828996   2.484   8.447   0.211
  518DIO     H928997   2.448   8.775   0.375
  518DIO    H1028998   2.308   8.807   0.275
  518DIO    H1128999   2.250   8.735   0.512
  518DIO    H1229000   2.292   8.491   0.565
  518DIO    H1329001   2.439   8.586   0.551
  518DIO    H1429002   2.159   8.528   0.303
  518DIO    H1529003   2.083   8.561   0.458
  518DIO    H1629004   2.096   8.750   0.218
  518DIO    H1729005   1.957   8.661   0.276
  518DIO    H1829006   1.966   8.792   0.493
  518DIO    H1929007   2.097   8.890   0.423
  518DIO    H2029008   1.937   8.891   0.349
  519DIO     F129009   7.594  -0.716   6.035
  519DIO     C129010   7.516  -0.607   6.025
  519DIO     C229011   7.372  -0.622   6.018
  519DIO     C329012   7.284  -0.504   6.005
  519DIO     C429013   7.349  -0.371   6.003
  519DIO     C529014   7.493  -0.359   6.011
  519DIO     F229015   7.549  -0.236   6.013
  519DIO     C629016   7.577  -0.476   6.022
  519DIO     F329017   7.711  -0.463   6.028
  519DIO     C729018   7.137  -0.517   5.997
  519DIO     C829019   7.060  -0.450   5.890
  519DIO     C929020   6.915  -0.462   5.882
  519DIO    C1029021   6.843  -0.534   5.985
  519DIO    C1129022   6.915  -0.608   6.087
  519DIO    C1229023   7.059  -0.598   6.093
  519DIO     F429024   7.124  -0.663   6.192
  519DIO     O129025   6.711  -0.563   5.958
  519DIO    C1329026   6.616  -0.566   6.060
  519DIO     O229027   6.615  -0.519   6.177
  519DIO    C1429028   6.487  -0.620   6.016
  519DIO    C1529029   6.421  -0.572   5.892
  519DIO     F529030   6.483  -0.484   5.812
  519DIO    C1629031   6.290  -0.619   5.851
  519DIO    C1729032   6.214  -0.711   5.934
  519DIO    C1829033   6.283  -0.773   6.047
  519DIO    C1929034   6.414  -0.727   6.088
  519DIO     F629035   6.477  -0.798   6.184
  519DIO    C2029036   6.073  -0.753   5.898
  519DIO     O329037   6.004  -0.656   5.819
  519DIO    C2129038   5.960  -0.544   5.894
  519DIO    C2229039   5.871  -0.587   6.010
  519DIO    C2329040   5.952  -0.688   6.092
  519DIO     O429041   5.996  -0.796   6.011
  519DIO    C2429042   5.738  -0.651   5.964
  519DIO    C2529043   5.648  -0.563   5.878
  519DIO    C2629044   5.609  -0.431   5.945
  519DIO     H129045   7.330  -0.721   6.022
  519DIO     H229046   7.288  -0.281   6.004
  519DIO     H329047   7.112  -0.394   5.813
  519DIO     H429048   6.860  -0.420   5.799
  519DIO     H529049   6.861  -0.666   6.160
  519DIO     H629050   6.252  -0.587   5.755
  519DIO     H729051   6.240  -0.857   6.100
  519DIO     H829052   6.083  -0.841   5.834
  519DIO     H929053   6.047  -0.488   5.931
  519DIO    H1029054   5.907  -0.476   5.827
  519DIO    H1129055   5.849  -0.501   6.074
  519DIO    H1229056   5.891  -0.730   6.173
  519DIO    H1329057   6.038  -0.640   6.140
  519DIO    H1429058   5.758  -0.744   5.908
  519DIO    H1529059   5.682  -0.682   6.053
  519DIO    H1629060   5.695  -0.542   5.782
  519DIO    H1729061   5.556  -0.619   5.856
  519DIO    H1829062   5.565  -0.448   6.043
  519DIO    H1929063   5.696  -0.365   5.956
  519DIO    H2029064   5.536  -0.379   5.883
  520DIO     F129065   6.987  -0.698   8.581
  520DIO     C129066   6.909  -0.733   8.477
  520DIO     C229067   6.765  -0.736   8.493
  520DIO     C329068   6.676  -0.777   8.382
  520DIO     C429069   6.742  -0.810   8.253
  520DIO     C529070   6.886  -0.806   8.239
  520DIO     F229071   6.941  -0.833   8.120
  520DIO     C629072   6.970  -0.767   8.350
  520DIO     F329073   7.103  -0.764   8.336
  520DIO     C729074   6.530  -0.782   8.397
  520DIO     C829075   6.453  -0.902   8.356
  520DIO     C929076   6.308  -0.907   8.371
  520DIO    C1029077   6.235  -0.789   8.416
  520DIO    C1129078   6.308  -0.673   8.464
  520DIO    C1229079   6.452  -0.669   8.452
  520DIO     F429080   6.517  -0.558   8.492
  520DIO     O129081   6.103  -0.809   8.450
  520DIO    C1329082   6.009  -0.709   8.429
  520DIO     O229083   6.008  -0.606   8.356
  520DIO    C1429084   5.880  -0.739   8.492
  520DIO    C1529085   5.813  -0.870   8.475
  520DIO     F529086   5.876  -0.970   8.408
  520DIO    C1629087   5.682  -0.900   8.530
  520DIO    C1729088   5.607  -0.796   8.600
  520DIO    C1829089   5.675  -0.672   8.633
  520DIO    C1929090   5.807  -0.643   8.578
  520DIO     F629091   5.870  -0.533   8.625
  520DIO    C2029092   5.466  -0.822   8.649
  520DIO     O329093   5.396  -0.922   8.574
  520DIO    C2129094   5.353  -0.875   8.447
  520DIO    C2229095   5.264  -0.752   8.462
  520DIO    C2329096   5.344  -0.648   8.540
  520DIO     O429097   5.389  -0.702   8.664
  520DIO    C2429098   5.131  -0.782   8.535
  520DIO    C2529099   5.040  -0.886   8.469
  520DIO    C2629100   5.002  -0.853   8.326
  520DIO     H129101   6.722  -0.709   8.589
  520DIO     H229102   6.681  -0.831   8.166
  520DIO     H329103   6.504  -0.989   8.320
  520DIO     H429104   6.253  -0.997   8.349
  520DIO     H529105   6.253  -0.588   8.503
  520DIO     H629106   5.644  -1.001   8.522
  520DIO     H729107   5.633  -0.601   8.703
  520DIO     H829108   5.476  -0.863   8.750
  520DIO     H929109   5.439  -0.852   8.384
  520DIO    H1029110   5.300  -0.957   8.397
  520DIO    H1129111   5.241  -0.711   8.362
  520DIO    H1229112   5.283  -0.560   8.562
  520DIO    H1329113   5.431  -0.614   8.481
  520DIO    H1429114   5.151  -0.814   8.638
  520DIO    H1529115   5.074  -0.688   8.543
  520DIO    H1629116   5.088  -0.985   8.472
  520DIO    H1729117   4.948  -0.894   8.529
  520DIO    H1829118   4.958  -0.753   8.319
  520DIO    H1929119   5.088  -0.858   8.259
  520DIO    H2029120   4.928  -0.925   8.289
  521DIO     F129121   5.692   0.422   4.523
  521DIO     C129122   5.614   0.503   4.597
  521DIO     C229123   5.470   0.498   4.581
  521DIO     C329124   5.381   0.587   4.659
  521DIO     C429125   5.447   0.679   4.755
  521DIO     C529126   5.591   0.682   4.769
  521DIO     F229127   5.647   0.764   4.861
  521DIO     C629128   5.675   0.594   4.691
  521DIO     F329129   5.809   0.599   4.705
  521DIO     C729130   5.235   0.585   4.643
  521DIO     C829131   5.158   0.709   4.621
  521DIO     C929132   5.013   0.706   4.606
  521DIO    C1029133   4.941   0.582   4.622
  521DIO    C1129134   5.013   0.457   4.637
  521DIO    C1229135   5.157   0.459   4.649
  521DIO     F429136   5.222   0.343   4.668
  521DIO     O129137   4.808   0.583   4.583
  521DIO    C1329138   4.714   0.505   4.650
  521DIO     O229139   4.713   0.451   4.764
  521DIO    C1429140   4.585   0.501   4.581
  521DIO    C1529141   4.519   0.624   4.532
  521DIO     F529142   4.581   0.743   4.542
  521DIO    C1629143   4.388   0.623   4.469
  521DIO    C1729144   4.312   0.499   4.458
  521DIO    C1829145   4.381   0.374   4.490
  521DIO    C1929146   4.512   0.376   4.551
  521DIO     F629147   4.575   0.257   4.564
  521DIO    C2029148   4.171   0.498   4.403
  521DIO     O329149   4.102   0.622   4.421
  521DIO    C2129150   4.058   0.642   4.554
  521DIO    C2229151   3.969   0.527   4.601
  521DIO    C2329152   4.050   0.399   4.583
  521DIO     O429153   4.094   0.386   4.448
  521DIO    C2429154   3.836   0.518   4.523
  521DIO    C2529155   3.746   0.641   4.530
  521DIO    C2629156   3.707   0.681   4.671
  521DIO     H129157   5.428   0.428   4.510
  521DIO     H229158   5.386   0.739   4.822
  521DIO     H329159   5.209   0.803   4.610
  521DIO     H429160   4.958   0.796   4.581
  521DIO     H529161   4.959   0.364   4.644
  521DIO     H629162   4.350   0.716   4.428
  521DIO     H729163   4.338   0.279   4.463
  521DIO     H829164   4.181   0.485   4.295
  521DIO     H929165   4.145   0.653   4.620
  521DIO    H1029166   4.005   0.738   4.558
  521DIO    H1129167   3.946   0.540   4.707
  521DIO    H1229168   3.989   0.311   4.606
  521DIO    H1329169   4.136   0.397   4.650
  521DIO    H1429170   3.856   0.496   4.417
  521DIO    H1529171   3.780   0.432   4.561
  521DIO    H1629172   3.793   0.726   4.479
  521DIO    H1729173   3.654   0.619   4.473
  521DIO    H1829174   3.663   0.597   4.726
  521DIO    H1929175   3.794   0.718   4.727
  521DIO    H2029176   3.633   0.762   4.668
  522DIO     F129177  10.763   9.375   5.048
  522DIO     C129178  10.686   9.379   5.158
  522DIO     C229179  10.542   9.387   5.143
  522DIO     C329180  10.453   9.395   5.261
  522DIO     C429181  10.518   9.391   5.394
  522DIO     C529182  10.663   9.383   5.406
  522DIO     F229183  10.718   9.376   5.529
  522DIO     C629184  10.746   9.377   5.289
  522DIO     F329185  10.880   9.370   5.301
  522DIO     C729186  10.306   9.404   5.248
  522DIO     C829187  10.229   9.508   5.320
  522DIO     C929188  10.085   9.516   5.308
  522DIO    C1029189  10.012   9.417   5.231
  522DIO    C1129190  10.084   9.318   5.153
  522DIO    C1229191  10.229   9.311   5.164
  522DIO     F429192  10.293   9.215   5.094
  522DIO     O129193   9.880   9.445   5.204
  522DIO    C1329194   9.785   9.343   5.197
  522DIO     O229195   9.784   9.224   5.238
  522DIO    C1429196   9.656   9.389   5.145
  522DIO    C1529197   9.590   9.511   5.198
  522DIO     F529198   9.652   9.587   5.289
  522DIO    C1629199   9.459   9.554   5.153
  522DIO    C1729200   9.383   9.475   5.057
  522DIO    C1829201   9.452   9.364   4.991
  522DIO    C1929202   9.584   9.322   5.035
  522DIO     F629203   9.646   9.228   4.960
  522DIO    C2029204   9.243   9.513   5.017
  522DIO     O329205   9.173   9.588   5.117
  522DIO    C2129206   9.129   9.507   5.226
  522DIO    C2229207   9.040   9.393   5.178
  522DIO    C2329208   9.121   9.316   5.073
  522DIO     O429209   9.165   9.402   4.969
  522DIO    C2429210   8.907   9.442   5.115
  522DIO    C2529211   8.817   9.524   5.208
  522DIO    C2629212   8.778   9.452   5.336
  522DIO     H129213  10.499   9.388   5.043
  522DIO     H229214  10.458   9.387   5.484
  522DIO     H329215  10.281   9.582   5.380
  522DIO     H429216  10.029   9.597   5.354
  522DIO     H529217  10.030   9.247   5.092
  522DIO     H629218   9.421   9.649   5.189
  522DIO     H729219   9.409   9.316   4.904
  522DIO     H829220   9.252   9.580   4.932
  522DIO     H929221   9.216   9.468   5.280
  522DIO    H1029222   9.076   9.572   5.297
  522DIO    H1129223   9.018   9.327   5.261
  522DIO    H1229224   9.060   9.237   5.028
  522DIO    H1329225   9.207   9.266   5.120
  522DIO    H1429226   8.927   9.502   5.026
  522DIO    H1529227   8.851   9.354   5.081
  522DIO    H1629228   8.864   9.620   5.232
  522DIO    H1729229   8.725   9.549   5.153
  522DIO    H1829230   8.734   9.354   5.315
  522DIO    H1929231   8.865   9.438   5.402
  522DIO    H2029232   8.705   9.512   5.391
  523DIO     F129233   3.446   4.005   9.641
  523DIO     C129234   3.368   3.929   9.561
  523DIO     C229235   3.224   3.932   9.578
  523DIO     C329236   3.135   3.849   9.494
  523DIO     C429237   3.201   3.764   9.392
  523DIO     C529238   3.345   3.762   9.377
  523DIO     F229239   3.400   3.686   9.280
  523DIO     C629240   3.429   3.844   9.461
  523DIO     F329241   3.562   3.840   9.447
  523DIO     C729242   2.989   3.850   9.510
  523DIO     C829243   2.912   3.725   9.524
  523DIO     C929244   2.767   3.726   9.539
  523DIO    C1029245   2.694   3.852   9.530
  523DIO    C1129246   2.767   3.977   9.524
  523DIO    C1229247   2.911   3.976   9.512
  523DIO     F429248   2.976   4.094   9.501
  523DIO     O129249   2.562   3.848   9.569
  523DIO    C1329250   2.468   3.930   9.508
  523DIO     O229251   2.467   3.992   9.398
  523DIO    C1429252   2.339   3.929   9.577
  523DIO    C1529253   2.272   3.803   9.618
  523DIO     F529254   2.335   3.685   9.600
  523DIO    C1629255   2.141   3.800   9.681
  523DIO    C1729256   2.066   3.924   9.700
  523DIO    C1829257   2.134   4.050   9.677
  523DIO    C1929258   2.266   4.053   9.615
  523DIO     F629259   2.329   4.172   9.610
  523DIO    C2029260   1.925   3.921   9.755
  523DIO     O329261   1.855   3.799   9.729
  523DIO    C2129262   1.812   3.787   9.594
  523DIO    C2229263   1.723   3.905   9.556
  523DIO    C2329264   1.803   4.032   9.582
  523DIO     O429265   1.848   4.036   9.718
  523DIO    C2429266   1.590   3.909   9.634
  523DIO    C2529267   1.499   3.787   9.619
  523DIO    C2629268   1.461   3.756   9.475
  523DIO     H129269   3.181   3.998   9.653
  523DIO     H229270   3.140   3.708   9.321
  523DIO     H329271   2.963   3.630   9.528
  523DIO     H429272   2.712   3.635   9.558
  523DIO     H529273   2.712   4.071   9.523
  523DIO     H629274   2.103   3.705   9.716
  523DIO     H729275   2.092   4.144   9.710
  523DIO     H829276   1.935   3.927   9.864
  523DIO     H929277   1.898   3.781   9.528
  523DIO    H1029278   1.759   3.692   9.584
  523DIO    H1129279   1.700   3.900   9.448
  523DIO    H1229280   1.742   4.121   9.565
  523DIO    H1329281   1.890   4.038   9.515
  523DIO    H1429282   1.610   3.923   9.741
  523DIO    H1529283   1.533   3.998   9.602
  523DIO    H1629284   1.547   3.699   9.664
  523DIO    H1729285   1.407   3.805   9.677
  523DIO    H1829286   1.417   3.843   9.427
  523DIO    H1929287   1.547   3.723   9.417
  523DIO    H2029288   1.387   3.675   9.473
  524DIO     F129289   5.675  -0.832   2.944
  524DIO     C129290   5.597  -0.785   3.043
  524DIO     C229291   5.453  -0.783   3.026
  524DIO     C329292   5.365  -0.730   3.132
  524DIO     C429293   5.430  -0.681   3.256
  524DIO     C529294   5.574  -0.684   3.270
  524DIO     F229295   5.630  -0.643   3.386
  524DIO     C629296   5.658  -0.736   3.165
  524DIO     F329297   5.792  -0.737   3.179
  524DIO     C729298   5.218  -0.727   3.116
  524DIO     C829299   5.141  -0.603   3.143
  524DIO     C929300   4.996  -0.600   3.128
  524DIO    C1029301   4.924  -0.721   3.096
  524DIO    C1129302   4.996  -0.843   3.063
  524DIO    C1229303   5.140  -0.845   3.075
  524DIO     F429304   5.205  -0.960   3.049
  524DIO     O129305   4.792  -0.706   3.060
  524DIO    C1329306   4.697  -0.803   3.093
  524DIO     O229307   4.696  -0.896   3.178
  524DIO    C1429308   4.568  -0.780   3.027
  524DIO    C1529309   4.502  -0.648   3.029
  524DIO     F529310   4.564  -0.542   3.083
  524DIO    C1629311   4.371  -0.625   2.970
  524DIO    C1729312   4.295  -0.736   2.913
  524DIO    C1829313   4.364  -0.863   2.895
  524DIO    C1929314   4.495  -0.885   2.953
  524DIO     F629315   4.558  -1.001   2.920
  524DIO    C2029316   4.154  -0.717   2.862
  524DIO     O329317   4.085  -0.608   2.924
  524DIO    C2129318   4.041  -0.640   3.056
  524DIO    C2229319   3.952  -0.764   3.056
  524DIO    C2329320   4.033  -0.876   2.990
  524DIO     O429321   4.077  -0.837   2.860
  524DIO    C2429322   3.819  -0.743   2.980
  524DIO    C2529323   3.729  -0.632   3.033
  524DIO    C2629324   3.690  -0.648   3.179
  524DIO     H129325   5.411  -0.821   2.934
  524DIO     H229326   5.369  -0.651   3.340
  524DIO     H329327   5.193  -0.511   3.168
  524DIO     H429328   4.941  -0.507   3.139
  524DIO     H529329   4.942  -0.932   3.034
  524DIO     H629330   4.333  -0.524   2.967
  524DIO     H729331   4.321  -0.942   2.834
  524DIO     H829332   4.164  -0.687   2.756
  524DIO     H929333   4.128  -0.655   3.121
  524DIO    H1029334   3.988  -0.553   3.096
  524DIO    H1129335   3.930  -0.793   3.159
  524DIO    H1229336   3.972  -0.966   2.979
  524DIO    H1329337   4.119  -0.903   3.052
  524DIO    H1429338   3.839  -0.723   2.874
  524DIO    H1529339   3.763  -0.837   2.983
  524DIO    H1629340   3.776  -0.534   3.018
  524DIO    H1729341   3.637  -0.630   2.972
  524DIO    H1829342   3.646  -0.746   3.198
  524DIO    H1929343   3.777  -0.635   3.245
  524DIO    H2029344   3.617  -0.572   3.207
  525DIO     F129345   1.462   5.665   8.312
  525DIO     C129346   1.384   5.774   8.324
  525DIO     C229347   1.240   5.760   8.314
  525DIO     C329348   1.151   5.878   8.324
  525DIO     C429349   1.217   6.009   8.348
  525DIO     C529350   1.361   6.020   8.357
  525DIO     F229351   1.416   6.140   8.383
  525DIO     C629352   1.445   5.903   8.346
  525DIO     F329353   1.579   5.915   8.354
  525DIO     C729354   1.005   5.867   8.313
  525DIO     C829355   0.928   5.954   8.222
  525DIO     C929356   0.783   5.943   8.211
  525DIO    C1029357   0.710   5.853   8.298
  525DIO    C1129358   0.783   5.760   8.384
  525DIO    C1229359   0.927   5.770   8.392
  525DIO     F429360   0.992   5.687   8.477
  525DIO     O129361   0.578   5.830   8.266
  525DIO    C1329362   0.484   5.807   8.366
  525DIO     O229363   0.483   5.830   8.490
  525DIO    C1429364   0.355   5.763   8.312
  525DIO    C1529365   0.288   5.833   8.200
  525DIO     F529366   0.351   5.935   8.138
  525DIO    C1629367   0.158   5.795   8.150
  525DIO    C1729368   0.082   5.689   8.215
  525DIO    C1829369   0.151   5.607   8.314
  525DIO    C1929370   0.282   5.644   8.363
  525DIO     F629371   0.345   5.556   8.443
  525DIO    C2029372  -0.059   5.655   8.171
  525DIO     O329373  -0.129   5.765   8.112
  525DIO    C2129374  -0.172   5.861   8.208
  525DIO    C2229375  -0.261   5.796   8.313
  525DIO    C2329376  -0.180   5.681   8.374
  525DIO     O429377  -0.136   5.591   8.273
  525DIO    C2429378  -0.394   5.742   8.256
  525DIO    C2529379  -0.485   5.845   8.188
  525DIO    C2629380  -0.523   5.961   8.279
  525DIO     H129381   1.197   5.662   8.298
  525DIO     H229382   1.156   6.097   8.366
  525DIO     H329383   0.979   6.024   8.157
  525DIO     H429384   0.728   6.001   8.138
  525DIO     H529385   0.729   5.689   8.445
  525DIO     H629386   0.119   5.845   8.062
  525DIO     H729387   0.108   5.514   8.349
  525DIO     H829388  -0.049   5.581   8.091
  525DIO     H929389  -0.086   5.908   8.255
  525DIO    H1029390  -0.225   5.940   8.154
  525DIO    H1129391  -0.284   5.869   8.392
  525DIO    H1229392  -0.242   5.624   8.445
  525DIO    H1329393  -0.094   5.720   8.430
  525DIO    H1429394  -0.374   5.662   8.183
  525DIO    H1529395  -0.450   5.695   8.337
  525DIO    H1629396  -0.437   5.884   8.097
  525DIO    H1729397  -0.576   5.794   8.156
  525DIO    H1829398  -0.567   5.926   8.372
  525DIO    H1929399  -0.437   6.024   8.302
  525DIO    H2029400  -0.597   6.025   8.228
  526DIO     F129401   4.107   0.273   5.665
  526DIO     C129402   4.029   0.356   5.738
  526DIO     C229403   3.885   0.350   5.722
  526DIO     C329404   3.796   0.441   5.798
  526DIO     C429405   3.862   0.535   5.893
  526DIO     C529406   4.006   0.538   5.907
  526DIO     F229407   4.062   0.621   5.997
  526DIO     C629408   4.090   0.449   5.831
  526DIO     F329409   4.224   0.453   5.844
  526DIO     C729410   3.650   0.438   5.783
  526DIO     C829411   3.573   0.562   5.758
  526DIO     C929412   3.428   0.559   5.743
  526DIO    C1029413   3.356   0.435   5.762
  526DIO    C1129414   3.428   0.310   5.779
  526DIO    C1229415   3.572   0.313   5.791
  526DIO     F429416   3.637   0.196   5.813
  526DIO     O129417   3.223   0.435   5.723
  526DIO    C1329418   3.129   0.359   5.792
  526DIO     O229419   3.128   0.306   5.906
  526DIO    C1429420   3.000   0.353   5.722
  526DIO    C1529421   2.934   0.476   5.671
  526DIO     F529422   2.996   0.595   5.679
  526DIO    C1629423   2.803   0.473   5.608
  526DIO    C1729424   2.727   0.349   5.600
  526DIO    C1829425   2.796   0.225   5.633
  526DIO    C1929426   2.927   0.227   5.695
  526DIO     F629427   2.990   0.109   5.710
  526DIO    C2029428   2.586   0.347   5.545
  526DIO     O329429   2.517   0.471   5.560
  526DIO    C2129430   2.473   0.494   5.693
  526DIO    C2229431   2.384   0.380   5.742
  526DIO    C2329432   2.465   0.251   5.726
  526DIO     O429433   2.509   0.235   5.591
  526DIO    C2429434   2.251   0.369   5.664
  526DIO    C2529435   2.161   0.492   5.668
  526DIO    C2629436   2.122   0.535   5.809
  526DIO     H129437   3.843   0.279   5.653
  526DIO     H229438   3.801   0.596   5.959
  526DIO     H329439   3.624   0.656   5.745
  526DIO     H429440   3.373   0.648   5.716
  526DIO     H529441   3.374   0.217   5.788
  526DIO     H629442   2.765   0.565   5.565
  526DIO     H729443   2.753   0.129   5.608
  526DIO     H829444   2.596   0.332   5.436
  526DIO     H929445   2.560   0.506   5.759
  526DIO    H1029446   2.420   0.589   5.695
  526DIO    H1129447   2.361   0.394   5.848
  526DIO    H1229448   2.404   0.164   5.751
  526DIO    H1329449   2.551   0.250   5.794
  526DIO    H1429450   2.271   0.345   5.558
  526DIO    H1529451   2.195   0.283   5.703
  526DIO    H1629452   2.208   0.576   5.616
  526DIO    H1729453   2.069   0.469   5.612
  526DIO    H1829454   2.078   0.452   5.865
  526DIO    H1929455   2.209   0.573   5.864
  526DIO    H2029456   2.048   0.616   5.804
  527DIO     F129457   4.187   5.866   0.696
  527DIO     C129458   4.109   5.842   0.803
  527DIO     C229459   3.965   5.853   0.791
  527DIO     C329460   3.876   5.829   0.907
  527DIO     C429461   3.942   5.791   1.034
  527DIO     C529462   4.086   5.780   1.044
  527DIO     F229463   4.142   5.741   1.160
  527DIO     C629464   4.170   5.805   0.929
  527DIO     F329465   4.304   5.795   0.939
  527DIO     C729466   3.730   5.842   0.897
  527DIO     C829467   3.653   5.923   0.994
  527DIO     C929468   3.508   5.934   0.984
  527DIO    C1029469   3.436   5.858   0.884
  527DIO    C1129470   3.508   5.784   0.783
  527DIO    C1229471   3.652   5.774   0.791
  527DIO     F429472   3.717   5.700   0.699
  527DIO     O129473   3.303   5.893   0.865
  527DIO    C1329474   3.209   5.796   0.831
  527DIO     O229475   3.208   5.671   0.840
  527DIO    C1429476   3.080   5.855   0.793
  527DIO    C1529477   3.013   5.958   0.876
  527DIO     F529478   3.076   6.008   0.985
  527DIO    C1629479   2.883   6.012   0.844
  527DIO    C1729480   2.807   5.960   0.731
  527DIO    C1829481   2.876   5.871   0.638
  527DIO    C1929482   3.007   5.818   0.670
  527DIO     F629483   3.070   5.748   0.572
  527DIO    C2029484   2.666   6.007   0.703
  527DIO     O329485   2.596   6.054   0.819
  527DIO    C2129486   2.553   5.947   0.903
  527DIO    C2229487   2.464   5.850   0.826
  527DIO    C2329488   2.545   5.803   0.705
  527DIO     O429489   2.589   5.913   0.627
  527DIO    C2429490   2.331   5.913   0.779
  527DIO    C2529491   2.240   5.968   0.889
  527DIO    C2629492   2.202   5.865   0.994
  527DIO     H129493   3.923   5.880   0.695
  527DIO     H229494   3.881   5.763   1.119
  527DIO     H329495   3.704   5.979   1.070
  527DIO     H429496   3.453   6.000   1.050
  527DIO     H529497   3.454   5.732   0.705
  527DIO     H629498   2.845   6.094   0.904
  527DIO     H729499   2.833   5.847   0.541
  527DIO     H829500   2.676   6.095   0.638
  527DIO     H929501   2.639   5.895   0.945
  527DIO    H1029502   2.500   5.991   0.988
  527DIO    H1129503   2.441   5.763   0.889
  527DIO    H1229504   2.484   5.739   0.640
  527DIO    H1329505   2.631   5.742   0.737
  527DIO    H1429506   2.351   5.995   0.708
  527DIO    H1529507   2.275   5.838   0.723
  527DIO    H1629508   2.288   6.054   0.938
  527DIO    H1729509   2.149   6.006   0.843
  527DIO    H1829510   2.158   5.776   0.948
  527DIO    H1929511   2.289   5.834   1.054
  527DIO    H2029512   2.128   5.908   1.063
  528DIO     F129513   5.847   1.322   5.345
  528DIO     C129514   5.770   1.217   5.312
  528DIO     C229515   5.626   1.229   5.325
  528DIO     C329516   5.537   1.115   5.292
  528DIO     C429517   5.602   0.991   5.244
  528DIO     C529518   5.747   0.982   5.232
  528DIO     F229519   5.802   0.869   5.184
  528DIO     C629520   5.830   1.095   5.266
  528DIO     F329521   5.964   1.085   5.256
  528DIO     C729522   5.390   1.124   5.305
  528DIO     C829523   5.313   1.021   5.379
  528DIO     C929524   5.169   1.030   5.391
  528DIO    C1029525   5.096   1.135   5.323
  528DIO    C1129526   5.169   1.242   5.256
  528DIO    C1229527   5.313   1.235   5.246
  528DIO     F429528   5.378   1.332   5.179
  528DIO     O129529   4.964   1.151   5.359
  528DIO    C1329530   4.869   1.193   5.265
  528DIO     O229531   4.868   1.194   5.139
  528DIO    C1429532   4.740   1.226   5.326
  528DIO    C1529533   4.674   1.135   5.423
  528DIO     F529534   4.737   1.023   5.464
  528DIO    C1629535   4.543   1.163   5.479
  528DIO    C1729536   4.467   1.280   5.436
  528DIO    C1829537   4.536   1.380   5.355
  528DIO    C1929538   4.668   1.352   5.300
  528DIO     F629539   4.730   1.454   5.237
  528DIO    C2029540   4.327   1.305   5.485
  528DIO     O329541   4.257   1.185   5.522
  528DIO    C2129542   4.213   1.110   5.410
  528DIO    C2229543   4.124   1.194   5.319
  528DIO    C2329544   4.205   1.318   5.281
  528DIO     O429545   4.249   1.387   5.397
  528DIO    C2429546   3.992   1.236   5.386
  528DIO    C2529547   3.901   1.121   5.432
  528DIO    C2629548   3.862   1.025   5.321
  528DIO     H129549   5.583   1.322   5.359
  528DIO     H229550   5.542   0.908   5.209
  528DIO     H329551   5.365   0.940   5.428
  528DIO     H429552   5.114   0.959   5.452
  528DIO     H529553   5.114   1.323   5.210
  528DIO     H629554   4.505   1.097   5.556
  528DIO     H729555   4.493   1.478   5.338
  528DIO     H829556   4.336   1.362   5.578
  528DIO     H929557   4.300   1.072   5.355
  528DIO    H1029558   4.160   1.022   5.447
  528DIO    H1129559   4.102   1.137   5.228
  528DIO    H1229560   4.144   1.387   5.222
  528DIO    H1329561   4.291   1.291   5.219
  528DIO    H1429562   4.011   1.300   5.473
  528DIO    H1529563   3.935   1.297   5.315
  528DIO    H1629564   3.948   1.066   5.514
  528DIO    H1729565   3.809   1.165   5.474
  528DIO    H1829566   3.819   1.078   5.236
  528DIO    H1929567   3.949   0.968   5.286
  528DIO    H2029568   3.789   0.953   5.358
  529DIO     F129569   4.987   1.381   4.937
  529DIO     C129570   4.909   1.312   4.851
  529DIO     C229571   4.765   1.315   4.868
  529DIO     C329572   4.676   1.238   4.777
  529DIO     C429573   4.742   1.162   4.668
  529DIO     C529574   4.886   1.161   4.654
  529DIO     F229575   4.941   1.094   4.551
  529DIO     C629576   4.970   1.236   4.744
  529DIO     F329577   5.103   1.234   4.730
  529DIO     C729578   4.530   1.239   4.793
  529DIO     C829579   4.453   1.112   4.797
  529DIO     C929580   4.308   1.113   4.812
  529DIO    C1029581   4.235   1.238   4.814
  529DIO    C1129582   4.308   1.364   4.818
  529DIO    C1229583   4.452   1.363   4.806
  529DIO     F429584   4.517   1.482   4.805
  529DIO     O129585   4.103   1.232   4.853
  529DIO    C1329586   4.009   1.318   4.798
  529DIO     O229587   4.008   1.389   4.694
  529DIO    C1429588   3.880   1.312   4.867
  529DIO    C1529589   3.813   1.183   4.897
  529DIO     F529590   3.876   1.066   4.869
  529DIO    C1629591   3.682   1.174   4.959
  529DIO    C1729592   3.607   1.295   4.989
  529DIO    C1829593   3.675   1.423   4.976
  529DIO    C1929594   3.807   1.431   4.916
  529DIO     F629595   3.870   1.551   4.921
  529DIO    C2029596   3.466   1.288   5.043
  529DIO     O329597   3.396   1.168   5.008
  529DIO    C2129598   3.353   1.168   4.872
  529DIO    C2229599   3.264   1.289   4.844
  529DIO    C2329600   3.344   1.413   4.881
  529DIO     O429601   3.389   1.406   5.016
  529DIO    C2429602   3.131   1.287   4.922
  529DIO    C2529603   3.040   1.166   4.897
  529DIO    C2629604   3.002   1.147   4.751
  529DIO     H129605   4.722   1.373   4.948
  529DIO     H229606   4.681   1.113   4.593
  529DIO     H329607   4.504   1.017   4.793
  529DIO     H429608   4.253   1.020   4.823
  529DIO     H529609   4.253   1.457   4.826
  529DIO     H629610   3.644   1.077   4.986
  529DIO     H729611   3.633   1.514   5.017
  529DIO     H829612   3.476   1.285   5.153
  529DIO     H929613   3.439   1.168   4.805
  529DIO    H1029614   3.300   1.074   4.854
  529DIO    H1129615   3.241   1.293   4.736
  529DIO    H1229616   3.283   1.504   4.871
  529DIO    H1329617   3.431   1.426   4.814
  529DIO    H1429618   3.151   1.292   5.030
  529DIO    H1529619   3.074   1.377   4.898
  529DIO    H1629620   3.088   1.074   4.934
  529DIO    H1729621   2.948   1.179   4.956
  529DIO    H1829622   2.958   1.239   4.710
  529DIO    H1929623   3.088   1.120   4.690
  529DIO    H2029624   2.928   1.067   4.742
  530DIO     F129625   7.211   1.635   6.372
  530DIO     C129626   7.133   1.525   6.372
  530DIO     C229627   6.989   1.540   6.381
  530DIO     C329628   6.900   1.421   6.384
  530DIO     C429629   6.966   1.289   6.376
  530DIO     C529630   7.110   1.277   6.368
  530DIO     F229631   7.165   1.154   6.356
  530DIO     C629632   7.194   1.394   6.365
  530DIO     F329633   7.328   1.382   6.359
  530DIO     C729634   6.754   1.434   6.394
  530DIO     C829635   6.677   1.358   6.495
  530DIO     C929636   6.532   1.370   6.504
  530DIO    C1029637   6.459   1.450   6.407
  530DIO    C1129638   6.532   1.532   6.311
  530DIO    C1229639   6.676   1.521   6.304
  530DIO     F429640   6.741   1.594   6.211
  530DIO     O129641   6.327   1.476   6.436
  530DIO    C1329642   6.233   1.487   6.335
  530DIO     O229643   6.232   1.450   6.214
  530DIO    C1429644   6.104   1.537   6.383
  530DIO    C1529645   6.037   1.480   6.502
  530DIO     F529646   6.100   1.386   6.576
  530DIO    C1629647   5.907   1.524   6.548
  530DIO    C1729648   5.831   1.623   6.471
  530DIO    C1829649   5.900   1.692   6.363
  530DIO    C1929650   6.031   1.649   6.319
  530DIO     F629651   6.094   1.728   6.229
  530DIO    C2029652   5.690   1.661   6.511
  530DIO     O329653   5.620   1.558   6.582
  530DIO    C2129654   5.577   1.452   6.498
  530DIO    C2229655   5.488   1.505   6.386
  530DIO    C2329656   5.569   1.611   6.312
  530DIO     O429657   5.613   1.713   6.402
  530DIO    C2429658   5.355   1.565   6.437
  530DIO    C2529659   5.264   1.470   6.516
  530DIO    C2629660   5.226   1.344   6.439
  530DIO     H129661   6.946   1.639   6.385
  530DIO     H229662   6.905   1.199   6.368
  530DIO     H329663   6.728   1.296   6.567
  530DIO     H429664   6.477   1.321   6.584
  530DIO     H529665   6.478   1.595   6.243
  530DIO     H629666   5.868   1.484   6.641
  530DIO     H729667   5.857   1.781   6.318
  530DIO     H829668   5.700   1.744   6.581
  530DIO     H929669   5.663   1.399   6.457
  530DIO    H1029670   5.524   1.380   6.560
  530DIO    H1129671   5.465   1.423   6.316
  530DIO    H1229672   5.507   1.660   6.235
  530DIO    H1329673   5.655   1.567   6.261
  530DIO    H1429674   5.375   1.653   6.500
  530DIO    H1529675   5.299   1.602   6.350
  530DIO    H1629676   5.312   1.442   6.611
  530DIO    H1729677   5.173   1.524   6.542
  530DIO    H1829678   5.182   1.369   6.342
  530DIO    H1929679   5.312   1.279   6.423
  530DIO    H2029680   5.152   1.287   6.497
  531DIO     F129681   4.320   2.756   7.305
  531DIO     C129682   4.242   2.675   7.380
  531DIO     C229683   4.098   2.691   7.376
  531DIO     C329684   4.009   2.606   7.458
  531DIO     C429685   4.075   2.502   7.541
  531DIO     C529686   4.219   2.488   7.543
  531DIO     F229687   4.275   2.389   7.617
  531DIO     C629688   4.303   2.573   7.462
  531DIO     F329689   4.437   2.559   7.466
  531DIO     C729690   3.863   2.622   7.457
  531DIO     C829691   3.786   2.634   7.583
  531DIO     C929692   3.641   2.649   7.582
  531DIO    C1029693   3.569   2.643   7.456
  531DIO    C1129694   3.641   2.639   7.330
  531DIO    C1229695   3.785   2.626   7.332
  531DIO     F429696   3.850   2.618   7.214
  531DIO     O129697   3.436   2.682   7.460
  531DIO    C1329698   3.342   2.622   7.377
  531DIO     O229699   3.341   2.513   7.313
  531DIO    C1429700   3.213   2.691   7.379
  531DIO    C1529701   3.146   2.729   7.506
  531DIO     F529702   3.209   2.709   7.624
  531DIO    C1629703   3.016   2.792   7.510
  531DIO    C1729704   2.940   2.814   7.388
  531DIO    C1829705   3.009   2.793   7.261
  531DIO    C1929706   3.140   2.732   7.257
  531DIO     F629707   3.203   2.729   7.137
  531DIO    C2029708   2.799   2.868   7.391
  531DIO     O329709   2.729   2.840   7.513
  531DIO    C2129710   2.686   2.705   7.522
  531DIO    C2229711   2.597   2.669   7.403
  531DIO    C2329712   2.678   2.698   7.277
  531DIO     O429713   2.722   2.834   7.276
  531DIO    C2429714   2.464   2.748   7.401
  531DIO    C2529715   2.373   2.730   7.523
  531DIO    C2629716   2.335   2.586   7.551
  531DIO     H129717   4.056   2.768   7.312
  531DIO     H229718   4.014   2.430   7.596
  531DIO     H329719   3.837   2.636   7.678
  531DIO     H429720   3.586   2.666   7.673
  531DIO     H529721   3.587   2.640   7.237
  531DIO     H629722   2.978   2.825   7.606
  531DIO     H729723   2.966   2.828   7.168
  531DIO     H829724   2.809   2.978   7.388
  531DIO     H929725   2.772   2.639   7.527
  531DIO    H1029726   2.633   2.693   7.617
  531DIO    H1129727   2.574   2.562   7.406
  531DIO    H1229728   2.617   2.682   7.188
  531DIO    H1329729   2.764   2.631   7.269
  531DIO    H1429730   2.484   2.855   7.389
  531DIO    H1529731   2.408   2.717   7.312
  531DIO    H1629732   2.421   2.773   7.612
  531DIO    H1729733   2.282   2.788   7.506
  531DIO    H1829734   2.291   2.539   7.462
  531DIO    H1929735   2.422   2.527   7.582
  531DIO    H2029736   2.261   2.582   7.632
  532DIO     F129737   3.608   3.568   8.889
  532DIO     C129738   3.531   3.481   8.956
  532DIO     C229739   3.386   3.498   8.954
  532DIO     C329740   3.298   3.406   9.028
  532DIO     C429741   3.363   3.295   9.102
  532DIO     C529742   3.507   3.281   9.102
  532DIO     F229743   3.563   3.176   9.167
  532DIO     C629744   3.591   3.373   9.029
  532DIO     F329745   3.725   3.359   9.032
  532DIO     C729746   3.151   3.422   9.028
  532DIO     C829747   3.074   3.423   9.155
  532DIO     C929748   2.929   3.438   9.155
  532DIO    C1029749   2.857   3.443   9.029
  532DIO    C1129750   2.929   3.450   8.903
  532DIO    C1229751   3.073   3.437   8.904
  532DIO     F429752   3.138   3.439   8.785
  532DIO     O129753   2.725   3.481   9.036
  532DIO    C1329754   2.630   3.428   8.949
  532DIO     O229755   2.629   3.326   8.876
  532DIO    C1429756   2.501   3.497   8.957
  532DIO    C1529757   2.435   3.524   9.086
  532DIO     F529758   2.497   3.494   9.202
  532DIO    C1629759   2.304   3.586   9.096
  532DIO    C1729760   2.228   3.619   8.976
  532DIO    C1829761   2.297   3.609   8.847
  532DIO    C1929762   2.429   3.548   8.838
  532DIO     F629763   2.491   3.556   8.719
  532DIO    C2029764   2.087   3.673   8.984
  532DIO     O329765   2.018   3.635   9.103
  532DIO    C2129766   1.974   3.499   9.100
  532DIO    C2229767   1.885   3.473   8.979
  532DIO    C2329768   1.966   3.513   8.855
  532DIO     O429769   2.010   3.648   8.866
  532DIO    C2429770   1.752   3.552   8.983
  532DIO    C2529771   1.662   3.524   9.103
  532DIO    C2629772   1.623   3.378   9.119
  532DIO     H129773   3.344   3.580   8.897
  532DIO     H229774   3.303   3.219   9.150
  532DIO     H329775   3.126   3.417   9.249
  532DIO     H429776   2.874   3.447   9.247
  532DIO     H529777   2.875   3.459   8.810
  532DIO     H629778   2.266   3.611   9.194
  532DIO     H729779   2.254   3.652   8.758
  532DIO     H829780   2.097   3.782   8.990
  532DIO     H929781   2.061   3.432   9.099
  532DIO    H1029782   1.921   3.479   9.194
  532DIO    H1129783   1.863   3.366   8.973
  532DIO    H1229784   1.905   3.505   8.765
  532DIO    H1329785   2.052   3.447   8.842
  532DIO    H1429786   1.772   3.660   8.980
  532DIO    H1529787   1.696   3.529   8.892
  532DIO    H1629788   1.709   3.559   9.196
  532DIO    H1729789   1.570   3.583   9.092
  532DIO    H1829790   1.579   3.338   9.026
  532DIO    H1929791   1.710   3.316   9.145
  532DIO    H2029792   1.550   3.367   9.199
  533DIO     F129793   7.804   7.022   6.573
  533DIO     C129794   7.726   7.027   6.683
  533DIO     C229795   7.582   7.035   6.668
  533DIO     C329796   7.493   7.043   6.786
  533DIO     C429797   7.559   7.040   6.919
  533DIO     C529798   7.703   7.032   6.931
  533DIO     F229799   7.759   7.025   7.054
  533DIO     C629800   7.787   7.025   6.814
  533DIO     F329801   7.921   7.019   6.826
  533DIO     C729802   7.347   7.052   6.773
  533DIO     C829803   7.270   7.156   6.845
  533DIO     C929804   7.125   7.165   6.832
  533DIO    C1029805   7.053   7.065   6.756
  533DIO    C1129806   7.125   6.966   6.678
  533DIO    C1229807   7.269   6.959   6.689
  533DIO     F429808   7.334   6.863   6.620
  533DIO     O129809   6.920   7.093   6.729
  533DIO    C1329810   6.826   6.991   6.722
  533DIO     O229811   6.825   6.872   6.764
  533DIO    C1429812   6.697   7.037   6.670
  533DIO    C1529813   6.631   7.159   6.722
  533DIO     F529814   6.693   7.236   6.814
  533DIO    C1629815   6.500   7.202   6.677
  533DIO    C1729816   6.424   7.122   6.581
  533DIO    C1829817   6.493   7.012   6.516
  533DIO    C1929818   6.624   6.969   6.560
  533DIO     F629819   6.687   6.876   6.485
  533DIO    C2029820   6.283   7.160   6.542
  533DIO     O329821   6.214   7.236   6.641
  533DIO    C2129822   6.170   7.156   6.751
  533DIO    C2229823   6.081   7.041   6.702
  533DIO    C2329824   6.162   6.963   6.599
  533DIO     O429825   6.206   7.049   6.494
  533DIO    C2429826   5.948   7.090   6.640
  533DIO    C2529827   5.858   7.172   6.732
  533DIO    C2629828   5.819   7.101   6.861
  533DIO     H129829   7.540   7.035   6.568
  533DIO     H229830   7.498   7.036   7.009
  533DIO     H329831   7.321   7.231   6.904
  533DIO     H429832   7.070   7.246   6.878
  533DIO     H529833   7.071   6.895   6.618
  533DIO     H629834   6.462   7.297   6.713
  533DIO     H729835   6.450   6.963   6.429
  533DIO     H829836   6.293   7.228   6.456
  533DIO     H929837   6.257   7.117   6.805
  533DIO    H1029838   6.117   7.221   6.821
  533DIO    H1129839   6.058   6.975   6.787
  533DIO    H1229840   6.101   6.885   6.553
  533DIO    H1329841   6.248   6.914   6.645
  533DIO    H1429842   5.968   7.150   6.550
  533DIO    H1529843   5.892   7.002   6.607
  533DIO    H1629844   5.905   7.268   6.756
  533DIO    H1729845   5.766   7.197   6.677
  533DIO    H1829846   5.775   7.003   6.840
  533DIO    H1929847   5.906   7.087   6.926
  533DIO    H2029848   5.745   7.160   6.916
  534DIO     F129849   9.330   1.054   7.450
  534DIO     C129850   9.253   0.995   7.543
  534DIO     C229851   9.108   1.010   7.535
  534DIO     C329852   9.020   0.949   7.637
  534DIO     C429853   9.085   0.870   7.744
  534DIO     C529854   9.229   0.856   7.749
  534DIO     F229855   9.285   0.781   7.846
  534DIO     C629856   9.313   0.918   7.649
  534DIO     F329857   9.447   0.906   7.656
  534DIO     C729858   8.873   0.964   7.631
  534DIO     C829859   8.796   1.008   7.750
  534DIO     C929860   8.651   1.022   7.745
  534DIO    C1029861   8.579   0.984   7.625
  534DIO    C1129862   8.651   0.947   7.504
  534DIO    C1229863   8.795   0.936   7.509
  534DIO     F429864   8.860   0.897   7.397
  534DIO     O129865   8.447   1.022   7.619
  534DIO    C1329866   8.352   0.943   7.555
  534DIO     O229867   8.351   0.821   7.521
  534DIO    C1429868   8.223   1.010   7.538
  534DIO    C1529869   8.157   1.080   7.651
  534DIO     F529870   8.219   1.091   7.770
  534DIO    C1629871   8.026   1.142   7.639
  534DIO    C1729872   7.950   1.131   7.515
  534DIO    C1829873   8.019   1.078   7.397
  534DIO    C1929874   8.151   1.018   7.409
  534DIO     F629875   8.213   0.984   7.295
  534DIO    C2029876   7.809   1.185   7.504
  534DIO     O329877   7.740   1.189   7.629
  534DIO    C2129878   7.696   1.061   7.672
  534DIO    C2229879   7.607   0.995   7.567
  534DIO    C2329880   7.688   0.991   7.438
  534DIO     O429881   7.732   1.121   7.401
  534DIO    C2429882   7.474   1.071   7.544
  534DIO    C2529883   7.384   1.085   7.667
  534DIO    C2629884   7.345   0.953   7.731
  534DIO     H129885   9.066   1.067   7.454
  534DIO     H229886   9.025   0.815   7.815
  534DIO     H329887   8.848   1.035   7.841
  534DIO     H429888   8.596   1.062   7.829
  534DIO     H529889   8.597   0.924   7.414
  534DIO     H629890   7.988   1.199   7.723
  534DIO     H729891   7.976   1.088   7.298
  534DIO     H829892   7.819   1.289   7.472
  534DIO     H929893   7.783   0.998   7.694
  534DIO    H1029894   7.643   1.074   7.767
  534DIO    H1129895   7.585   0.892   7.598
  534DIO    H1229896   7.627   0.952   7.355
  534DIO    H1329897   7.774   0.924   7.447
  534DIO    H1429898   7.494   1.171   7.505
  534DIO    H1529899   7.418   1.018   7.466
  534DIO    H1629900   7.431   1.150   7.742
  534DIO    H1729901   7.292   1.137   7.636
  534DIO    H1829902   7.301   0.885   7.658
  534DIO    H1929903   7.432   0.904   7.777
  534DIO    H2029904   7.272   0.970   7.810
  535DIO     F129905   4.785   3.038   4.131
  535DIO     C129906   4.707   3.148   4.120
  535DIO     C229907   4.563   3.132   4.113
  535DIO     C329908   4.474   3.250   4.098
  535DIO     C429909   4.540   3.383   4.094
  535DIO     C529910   4.684   3.395   4.101
  535DIO     F229911   4.739   3.518   4.101
  535DIO     C629912   4.768   3.279   4.115
  535DIO     F329913   4.901   3.292   4.120
  535DIO     C729914   4.328   3.236   4.090
  535DIO     C829915   4.251   3.302   3.982
  535DIO     C929916   4.106   3.289   3.974
  535DIO    C1029917   4.033   3.219   4.078
  535DIO    C1129918   4.106   3.147   4.181
  535DIO    C1229919   4.250   3.158   4.188
  535DIO     F429920   4.315   3.094   4.287
  535DIO     O129921   3.901   3.190   4.052
  535DIO    C1329922   3.807   3.189   4.154
  535DIO     O229923   3.806   3.238   4.270
  535DIO    C1429924   3.677   3.135   4.111
  535DIO    C1529925   3.611   3.180   3.986
  535DIO     F529926   3.674   3.267   3.904
  535DIO    C1629927   3.480   3.132   3.945
  535DIO    C1729928   3.405   3.041   4.031
  535DIO    C1829929   3.473   2.982   4.145
  535DIO    C1929930   3.605   3.029   4.185
  535DIO     F629931   3.667   2.959   4.282
  535DIO    C2029932   3.264   3.000   3.995
  535DIO     O329933   3.194   3.095   3.914
  535DIO    C2129934   3.150   3.208   3.988
  535DIO    C2229935   3.062   3.167   4.105
  535DIO    C2329936   3.142   3.068   4.188
  535DIO     O429937   3.187   2.958   4.108
  535DIO    C2429938   2.929   3.102   4.060
  535DIO    C2529939   2.838   3.189   3.972
  535DIO    C2629940   2.800   3.322   4.036
  535DIO     H129941   4.520   3.033   4.118
  535DIO     H229942   4.479   3.473   4.093
  535DIO     H329943   4.302   3.357   3.904
  535DIO     H429944   4.051   3.331   3.890
  535DIO     H529945   4.051   3.090   4.255
  535DIO     H629946   3.442   3.163   3.849
  535DIO     H729947   3.430   2.898   4.198
  535DIO     H829948   3.274   2.910   3.932
  535DIO     H929949   3.237   3.265   4.024
  535DIO    H1029950   3.098   3.275   3.919
  535DIO    H1129951   3.039   3.254   4.166
  535DIO    H1229952   3.081   3.027   4.269
  535DIO    H1329953   3.228   3.117   4.235
  535DIO    H1429954   2.949   3.009   4.005
  535DIO    H1529955   2.872   3.073   4.149
  535DIO    H1629956   2.885   3.208   3.875
  535DIO    H1729957   2.746   3.133   3.951
  535DIO    H1829958   2.756   3.306   4.135
  535DIO    H1929959   2.886   3.388   4.046
  535DIO    H2029960   2.726   3.373   3.974
  536DIO     F129961   7.889  -0.314   6.521
  536DIO     C129962   7.811  -0.400   6.590
  536DIO     C229963   7.667  -0.383   6.587
  536DIO     C329964   7.578  -0.474   6.663
  536DIO     C429965   7.644  -0.583   6.739
  536DIO     C529966   7.788  -0.597   6.740
  536DIO     F229967   7.843  -0.700   6.807
  536DIO     C629968   7.872  -0.507   6.665
  536DIO     F329969   8.006  -0.521   6.668
  536DIO     C729970   7.432  -0.458   6.663
  536DIO     C829971   7.355  -0.454   6.789
  536DIO     C929972   7.210  -0.439   6.789
  536DIO    C1029973   7.137  -0.437   6.664
  536DIO    C1129974   7.210  -0.432   6.538
  536DIO    C1229975   7.354  -0.445   6.538
  536DIO     F429976   7.419  -0.446   6.420
  536DIO     O129977   7.005  -0.398   6.670
  536DIO    C1329978   6.911  -0.453   6.584
  536DIO     O229979   6.910  -0.556   6.512
  536DIO    C1429980   6.782  -0.383   6.590
  536DIO    C1529981   6.715  -0.354   6.719
  536DIO     F529982   6.778  -0.382   6.835
  536DIO    C1629983   6.585  -0.292   6.728
  536DIO    C1729984   6.509  -0.262   6.607
  536DIO    C1829985   6.578  -0.274   6.479
  536DIO    C1929986   6.709  -0.335   6.471
  536DIO     F629987   6.772  -0.330   6.351
  536DIO    C2029988   6.368  -0.207   6.614
  536DIO     O329989   6.298  -0.243   6.734
  536DIO    C2129990   6.255  -0.379   6.733
  536DIO    C2229991   6.166  -0.407   6.613
  536DIO    C2329992   6.247  -0.369   6.489
  536DIO     O429993   6.291  -0.234   6.496
  536DIO    C2429994   6.033  -0.328   6.615
  536DIO    C2529995   5.942  -0.354   6.736
  536DIO    C2629996   5.904  -0.500   6.754
  536DIO     H129997   7.624  -0.302   6.529
  536DIO     H229998   7.583  -0.658   6.789
  536DIO     H329999   7.406  -0.458   6.884
  536DIO     H430000   7.155  -0.428   6.882
  536DIO     H530001   7.156  -0.425   6.445
  536DIO     H630002   6.546  -0.265   6.825
  536DIO     H730003   6.535  -0.233   6.388
  536DIO     H830004   6.378  -0.098   6.618
  536DIO     H930005   6.341  -0.446   6.734
  536DIO    H1030006   6.202  -0.397   6.827
  536DIO    H1130007   6.143  -0.514   6.609
  536DIO    H1230008   6.185  -0.379   6.398
  536DIO    H1330009   6.333  -0.436   6.476
  536DIO    H1430010   6.053  -0.220   6.610
  536DIO    H1530011   5.977  -0.353   6.524
  536DIO    H1630012   5.990  -0.317   6.828
  536DIO    H1730013   5.851  -0.295   6.723
  536DIO    H1830014   5.860  -0.541   6.663
  536DIO    H1930015   5.990  -0.561   6.782
  536DIO    H2030016   5.830  -0.510   6.835
  537DIO     F130017   6.117   1.973   4.613
  537DIO     C130018   6.039   1.987   4.722
  537DIO     C230019   5.895   1.993   4.706
  537DIO     C330020   5.806   2.010   4.824
  537DIO     C430021   5.872   2.017   4.956
  537DIO     C530022   6.016   2.010   4.969
  537DIO     F230023   6.072   2.013   5.092
  537DIO     C630024   6.100   1.994   4.853
  537DIO     F330025   6.234   1.989   4.866
  537DIO     C730026   5.660   2.018   4.810
  537DIO     C830027   5.583   2.128   4.874
  537DIO     C930028   5.438   2.135   4.861
  537DIO    C1030029   5.366   2.030   4.792
  537DIO    C1130030   5.438   1.925   4.722
  537DIO    C1230031   5.582   1.919   4.733
  537DIO     F430032   5.647   1.818   4.672
  537DIO     O130033   5.233   2.056   4.763
  537DIO    C1330034   5.139   1.953   4.764
  537DIO     O230035   5.138   1.838   4.815
  537DIO    C1430036   5.010   1.996   4.708
  537DIO    C1530037   4.944   2.121   4.751
  537DIO     F530038   5.006   2.205   4.836
  537DIO    C1630039   4.813   2.161   4.703
  537DIO    C1730040   4.737   2.074   4.614
  537DIO    C1830041   4.806   1.958   4.557
  537DIO    C1930042   4.937   1.919   4.604
  537DIO     F630043   5.000   1.820   4.537
  537DIO    C2030044   4.596   2.108   4.571
  537DIO     O330045   4.527   2.191   4.665
  537DIO    C2130046   4.483   2.120   4.780
  537DIO    C2230047   4.394   2.002   4.740
  537DIO    C2330048   4.475   1.917   4.643
  537DIO     O430049   4.519   1.994   4.532
  537DIO    C2430050   4.261   2.046   4.675
  537DIO    C2530051   4.171   2.135   4.760
  537DIO    C2630052   4.132   2.074   4.894
  537DIO     H130053   5.853   1.986   4.607
  537DIO     H230054   5.811   2.020   5.046
  537DIO     H330055   5.634   2.206   4.927
  537DIO     H430056   5.383   2.220   4.900
  537DIO     H530057   5.384   1.850   4.667
  537DIO     H630058   4.775   2.258   4.731
  537DIO     H730059   4.763   1.903   4.474
  537DIO     H830060   4.606   2.169   4.480
  537DIO     H930061   4.570   2.085   4.837
  537DIO    H1030062   4.430   2.190   4.845
  537DIO    H1130063   4.371   1.942   4.829
  537DIO    H1230064   4.414   1.835   4.604
  537DIO    H1330065   4.561   1.871   4.693
  537DIO    H1430066   4.281   2.098   4.580
  537DIO    H1530067   4.205   1.956   4.648
  537DIO    H1630068   4.218   2.233   4.777
  537DIO    H1730069   4.079   2.155   4.703
  537DIO    H1830070   4.088   1.974   4.881
  537DIO    H1930071   4.219   2.065   4.960
  537DIO    H2030072   4.058   2.137   4.944
  538DIO     F130073   8.830   7.083   5.183
  538DIO     C130074   8.752   6.973   5.192
  538DIO     C230075   8.608   6.988   5.200
  538DIO     C330076   8.519   6.871   5.212
  538DIO     C430077   8.585   6.738   5.213
  538DIO     C530078   8.729   6.725   5.206
  538DIO     F230079   8.785   6.602   5.203
  538DIO     C630080   8.813   6.842   5.195
  538DIO     F330081   8.947   6.829   5.189
  538DIO     C730082   8.373   6.884   5.220
  538DIO     C830083   8.296   6.816   5.327
  538DIO     C930084   8.151   6.828   5.335
  538DIO    C1030085   8.079   6.901   5.232
  538DIO    C1130086   8.151   6.975   5.131
  538DIO    C1230087   8.295   6.965   5.124
  538DIO     F430088   8.360   7.030   5.026
  538DIO     O130089   7.946   6.929   5.260
  538DIO    C1330090   7.852   6.933   5.157
  538DIO     O230091   7.851   6.887   5.040
  538DIO    C1430092   7.723   6.986   5.202
  538DIO    C1530093   7.656   6.938   5.325
  538DIO     F530094   7.719   6.850   5.405
  538DIO    C1630095   7.526   6.985   5.367
  538DIO    C1730096   7.450   7.078   5.284
  538DIO    C1830097   7.519   7.140   5.171
  538DIO    C1930098   7.650   7.094   5.130
  538DIO     F630099   7.713   7.165   5.034
  538DIO    C2030100   7.309   7.119   5.320
  538DIO     O330101   7.239   7.022   5.399
  538DIO    C2130102   7.196   6.910   5.323
  538DIO    C2230103   7.107   6.954   5.207
  538DIO    C2330104   7.188   7.055   5.126
  538DIO     O430105   7.232   7.163   5.208
  538DIO    C2430106   6.974   7.018   5.253
  538DIO    C2530107   6.883   6.929   5.339
  538DIO    C2630108   6.845   6.798   5.272
  538DIO     H130109   8.566   7.088   5.196
  538DIO     H230110   8.524   6.648   5.212
  538DIO     H330111   8.347   6.759   5.403
  538DIO     H430112   8.096   6.785   5.418
  538DIO     H530113   8.097   7.034   5.058
  538DIO     H630114   7.488   6.952   5.463
  538DIO     H730115   7.476   7.224   5.119
  538DIO     H830116   7.319   7.207   5.385
  538DIO     H930117   7.282   6.854   5.286
  538DIO    H1030118   7.143   6.842   5.390
  538DIO    H1130119   7.084   6.868   5.143
  538DIO    H1230120   7.127   7.098   5.045
  538DIO    H1330121   7.274   7.007   5.078
  538DIO    H1430122   6.994   7.110   5.310
  538DIO    H1530123   6.918   7.048   5.164
  538DIO    H1630124   6.931   6.908   5.436
  538DIO    H1730125   6.792   6.985   5.361
  538DIO    H1830126   6.801   6.815   5.173
  538DIO    H1930127   6.932   6.732   5.260
  538DIO    H2030128   6.771   6.745   5.333
  539DIO     F130129   5.862   7.312   9.039
  539DIO     C130130   5.784   7.328   8.930
  539DIO     C230131   5.640   7.318   8.943
  539DIO     C330132   5.551   7.332   8.825
  539DIO     C430133   5.617   7.360   8.696
  539DIO     C530134   5.761   7.370   8.685
  539DIO     F230135   5.816   7.400   8.566
  539DIO     C630136   5.845   7.355   8.802
  539DIO     F330137   5.978   7.364   8.790
  539DIO     C730138   5.405   7.321   8.837
  539DIO     C830139   5.328   7.232   8.746
  539DIO     C930140   5.183   7.221   8.757
  539DIO    C1030141   5.110   7.305   8.850
  539DIO    C1130142   5.183   7.388   8.946
  539DIO    C1230143   5.327   7.396   8.937
  539DIO     F430144   5.392   7.478   9.023
  539DIO     O130145   4.978   7.272   8.872
  539DIO    C1330146   4.884   7.371   8.898
  539DIO     O230147   4.883   7.496   8.879
  539DIO    C1430148   4.754   7.316   8.940
  539DIO    C1530149   4.688   7.207   8.866
  539DIO     F530150   4.751   7.148   8.762
  539DIO    C1630151   4.557   7.155   8.902
  539DIO    C1730152   4.482   7.216   9.011
  539DIO    C1830153   4.550   7.312   9.097
  539DIO    C1930154   4.682   7.362   9.061
  539DIO     F630155   4.744   7.440   9.152
  539DIO    C2030156   4.341   7.171   9.043
  539DIO     O330157   4.271   7.116   8.931
  539DIO    C2130158   4.227   7.215   8.839
  539DIO    C2230159   4.139   7.318   8.908
  539DIO    C2330160   4.219   7.375   9.024
  539DIO     O430161   4.264   7.271   9.111
  539DIO    C2430162   4.006   7.259   8.960
  539DIO    C2530163   3.915   7.195   8.854
  539DIO    C2630164   3.877   7.289   8.741
  539DIO     H130165   5.597   7.299   9.041
  539DIO     H230166   5.556   7.382   8.608
  539DIO     H330167   5.379   7.170   8.674
  539DIO     H430168   5.128   7.150   8.697
  539DIO     H530169   5.128   7.446   9.019
  539DIO     H630170   4.519   7.069   8.849
  539DIO     H730171   4.507   7.344   9.191
  539DIO     H830172   4.351   7.089   9.115
  539DIO     H930173   4.314   7.264   8.793
  539DIO    H1030174   4.175   7.165   8.758
  539DIO    H1130175   4.116   7.399   8.838
  539DIO    H1230176   4.158   7.444   9.084
  539DIO    H1330177   4.305   7.432   8.988
  539DIO    H1430178   4.026   7.183   9.037
  539DIO    H1530179   3.949   7.339   9.009
  539DIO    H1630180   3.962   7.105   8.812
  539DIO    H1730181   3.823   7.161   8.903
  539DIO    H1830182   3.833   7.382   8.780
  539DIO    H1930183   3.963   7.316   8.679
  539DIO    H2030184   3.803   7.242   8.676
  540DIO     F130185   9.772   6.874   3.848
  540DIO     C130186   9.695   6.943   3.934
  540DIO     C230187   9.551   6.941   3.917
  540DIO     C330188   9.462   7.017   4.008
  540DIO     C430189   9.527   7.093   4.117
  540DIO     C530190   9.672   7.094   4.132
  540DIO     F230191   9.727   7.161   4.234
  540DIO     C630192   9.755   7.019   4.041
  540DIO     F330193   9.889   7.022   4.055
  540DIO     C730194   9.316   7.017   3.992
  540DIO     C830195   9.238   7.143   3.989
  540DIO     C930196   9.094   7.143   3.973
  540DIO    C1030197   9.021   7.017   3.971
  540DIO    C1130198   9.094   6.891   3.967
  540DIO    C1230199   9.238   6.892   3.979
  540DIO     F430200   9.303   6.774   3.980
  540DIO     O130201   8.889   7.024   3.933
  540DIO    C1330202   8.794   6.937   3.987
  540DIO     O230203   8.794   6.866   4.091
  540DIO    C1430204   8.665   6.944   3.918
  540DIO    C1530205   8.599   7.073   3.888
  540DIO     F530206   8.662   7.189   3.916
  540DIO    C1630207   8.468   7.081   3.826
  540DIO    C1730208   8.392   6.960   3.796
  540DIO    C1830209   8.461   6.832   3.808
  540DIO    C1930210   8.593   6.824   3.869
  540DIO     F630211   8.655   6.705   3.864
  540DIO    C2030212   8.252   6.967   3.742
  540DIO     O330213   8.182   7.087   3.778
  540DIO    C2130214   8.138   7.087   3.913
  540DIO    C2230215   8.049   6.966   3.942
  540DIO    C2330216   8.130   6.842   3.904
  540DIO     O430217   8.174   6.850   3.769
  540DIO    C2430218   7.917   6.969   3.863
  540DIO    C2530219   7.826   7.090   3.888
  540DIO    C2630220   7.788   7.108   4.034
  540DIO     H130221   9.508   6.882   3.837
  540DIO     H230222   9.467   7.143   4.192
  540DIO     H330223   9.290   7.238   3.992
  540DIO     H430224   9.039   7.235   3.962
  540DIO     H530225   9.039   6.798   3.959
  540DIO     H630226   8.430   7.179   3.799
  540DIO     H730227   8.418   6.742   3.767
  540DIO     H830228   8.261   6.971   3.633
  540DIO     H930229   8.225   7.088   3.980
  540DIO    H1030230   8.086   7.181   3.931
  540DIO    H1130231   8.027   6.962   4.049
  540DIO    H1230232   8.069   6.752   3.914
  540DIO    H1330233   8.216   6.830   3.971
  540DIO    H1430234   7.937   6.964   3.755
  540DIO    H1530235   7.860   6.878   3.887
  540DIO    H1630236   7.873   7.181   3.851
  540DIO    H1730237   7.734   7.077   3.829
  540DIO    H1830238   7.744   7.017   4.075
  540DIO    H1930239   7.874   7.136   4.095
  540DIO    H2030240   7.714   7.189   4.044
  541DIO     F130241   2.151   1.111   8.188
  541DIO     C130242   2.073   1.162   8.285
  541DIO     C230243   1.929   1.163   8.268
  541DIO     C330244   1.840   1.221   8.371
  541DIO     C430245   1.906   1.275   8.492
  541DIO     C530246   2.050   1.273   8.507
  541DIO     F230247   2.106   1.320   8.620
  541DIO     C630248   2.134   1.217   8.404
  541DIO     F330249   2.268   1.216   8.418
  541DIO     C730250   1.694   1.224   8.355
  541DIO     C830251   1.617   1.348   8.375
  541DIO     C930252   1.472   1.351   8.361
  541DIO    C1030253   1.400   1.228   8.335
  541DIO    C1130254   1.472   1.105   8.307
  541DIO    C1230255   1.616   1.103   8.319
  541DIO     F430256   1.681   0.987   8.298
  541DIO     O130257   1.267   1.242   8.298
  541DIO    C1330258   1.173   1.146   8.336
  541DIO     O230259   1.172   1.057   8.424
  541DIO    C1430260   1.044   1.166   8.269
  541DIO    C1530261   0.978   1.298   8.264
  541DIO     F530262   1.040   1.407   8.313
  541DIO    C1630263   0.847   1.318   8.204
  541DIO    C1730264   0.771   1.204   8.152
  541DIO    C1830265   0.840   1.076   8.141
  541DIO    C1930266   0.971   1.057   8.199
  541DIO     F630267   1.034   0.941   8.172
  541DIO    C2030268   0.630   1.222   8.100
  541DIO     O330269   0.561   1.333   8.158
  541DIO    C2130270   0.517   1.307   8.291
  541DIO    C2230271   0.428   1.183   8.296
  541DIO    C2330272   0.509   1.069   8.236
  541DIO     O430273   0.553   1.101   8.105
  541DIO    C2430274   0.295   1.201   8.219
  541DIO    C2530275   0.205   1.315   8.267
  541DIO    C2630276   0.166   1.305   8.414
  541DIO     H130277   1.887   1.120   8.178
  541DIO     H230278   1.845   1.310   8.575
  541DIO     H330279   1.668   1.441   8.397
  541DIO     H430280   1.417   1.444   8.367
  541DIO     H530281   1.418   1.015   8.283
  541DIO     H630282   0.809   1.419   8.196
  541DIO     H730283   0.797   0.995   8.083
  541DIO     H830284   0.640   1.246   7.994
  541DIO     H930285   0.604   1.295   8.357
  541DIO    H1030286   0.464   1.396   8.326
  541DIO    H1130287   0.405   1.160   8.401
  541DIO    H1230288   0.448   0.978   8.229
  541DIO    H1330289   0.595   1.044   8.299
  541DIO    H1430290   0.315   1.216   8.112
  541DIO    H1530291   0.239   1.107   8.227
  541DIO    H1630292   0.252   1.412   8.247
  541DIO    H1730293   0.113   1.313   8.207
  541DIO    H1830294   0.122   1.208   8.437
  541DIO    H1930295   0.253   1.321   8.479
  541DIO    H2030296   0.092   1.383   8.438
  542DIO     F130297   2.167   2.529   5.482
  542DIO     C130298   2.090   2.611   5.556
  542DIO     C230299   1.946   2.606   5.539
  542DIO     C330300   1.857   2.696   5.617
  542DIO     C430301   1.922   2.788   5.712
  542DIO     C530302   2.067   2.791   5.726
  542DIO     F230303   2.122   2.874   5.817
  542DIO     C630304   2.150   2.703   5.649
  542DIO     F330305   2.284   2.708   5.662
  542DIO     C730306   1.711   2.693   5.601
  542DIO     C830307   1.633   2.817   5.577
  542DIO     C930308   1.489   2.814   5.562
  542DIO    C1030309   1.416   2.690   5.580
  542DIO    C1130310   1.489   2.565   5.596
  542DIO    C1230311   1.633   2.567   5.608
  542DIO     F430312   1.698   2.451   5.628
  542DIO     O130313   1.284   2.690   5.541
  542DIO    C1330314   1.189   2.614   5.609
  542DIO     O230315   1.189   2.560   5.723
  542DIO    C1430316   1.060   2.609   5.539
  542DIO    C1530317   0.994   2.731   5.490
  542DIO     F530318   1.057   2.851   5.499
  542DIO    C1630319   0.863   2.730   5.427
  542DIO    C1730320   0.787   2.605   5.417
  542DIO    C1830321   0.856   2.481   5.450
  542DIO    C1930322   0.988   2.483   5.511
  542DIO     F630323   1.050   2.364   5.525
  542DIO    C2030324   0.647   2.604   5.362
  542DIO     O330325   0.577   2.728   5.378
  542DIO    C2130326   0.533   2.749   5.512
  542DIO    C2230327   0.444   2.635   5.559
  542DIO    C2330328   0.525   2.506   5.542
  542DIO     O430329   0.569   2.492   5.407
  542DIO    C2430330   0.312   2.625   5.481
  542DIO    C2530331   0.221   2.748   5.487
  542DIO    C2630332   0.183   2.790   5.628
  542DIO     H130333   1.903   2.535   5.469
  542DIO     H230334   1.862   2.849   5.778
  542DIO     H330335   1.685   2.911   5.566
  542DIO     H430336   1.434   2.904   5.537
  542DIO     H530337   1.434   2.472   5.604
  542DIO     H630338   0.825   2.822   5.384
  542DIO     H730339   0.813   2.385   5.424
  542DIO     H830340   0.656   2.590   5.254
  542DIO     H930341   0.620   2.761   5.578
  542DIO    H1030342   0.481   2.845   5.515
  542DIO    H1130343   0.422   2.648   5.666
  542DIO    H1230344   0.464   2.419   5.566
  542DIO    H1330345   0.611   2.505   5.610
  542DIO    H1430346   0.332   2.602   5.375
  542DIO    H1530347   0.255   2.539   5.520
  542DIO    H1630348   0.268   2.832   5.435
  542DIO    H1730349   0.129   2.726   5.431
  542DIO    H1830350   0.139   2.706   5.683
  542DIO    H1930351   0.269   2.827   5.684
  542DIO    H2030352   0.109   2.871   5.624
  543DIO     F130353   1.381   5.454   8.968
  543DIO     C130354   1.304   5.410   8.867
  543DIO     C230355   1.160   5.408   8.884
  543DIO     C330356   1.071   5.358   8.777
  543DIO     C430357   1.136   5.313   8.652
  543DIO     C530358   1.281   5.316   8.637
  543DIO     F230359   1.336   5.279   8.520
  543DIO     C630360   1.364   5.365   8.744
  543DIO     F330361   1.498   5.366   8.730
  543DIO     C730362   0.925   5.354   8.792
  543DIO     C830363   0.847   5.231   8.762
  543DIO     C930364   0.703   5.228   8.777
  543DIO    C1030365   0.630   5.348   8.812
  543DIO    C1130366   0.703   5.468   8.850
  543DIO    C1230367   0.847   5.471   8.837
  543DIO     F430368   0.912   5.586   8.867
  543DIO     O130369   0.498   5.332   8.848
  543DIO    C1330370   0.403   5.429   8.818
  543DIO     O230371   0.403   5.525   8.736
  543DIO    C1430372   0.274   5.405   8.883
  543DIO    C1530373   0.208   5.273   8.878
  543DIO     F530374   0.271   5.168   8.820
  543DIO    C1630375   0.077   5.248   8.936
  543DIO    C1730376   0.001   5.357   8.996
  543DIO    C1830377   0.070   5.484   9.018
  543DIO    C1930378   0.202   5.508   8.961
  543DIO     F630379   0.264   5.622   8.997
  543DIO    C2030380  -0.139   5.336   9.047
  543DIO     O330381  -0.209   5.230   8.981
  543DIO    C2130382  -0.253   5.266   8.850
  543DIO    C2230383  -0.342   5.389   8.854
  543DIO    C2330384  -0.261   5.499   8.923
  543DIO     O430385  -0.217   5.457   9.052
  543DIO    C2430386  -0.474   5.366   8.930
  543DIO    C2530387  -0.565   5.256   8.873
  543DIO    C2630388  -0.603   5.277   8.728
  543DIO     H130389   1.117   5.443   8.977
  543DIO     H230390   1.076   5.285   8.566
  543DIO     H330391   0.899   5.141   8.734
  543DIO     H430392   0.648   5.136   8.763
  543DIO     H530393   0.648   5.556   8.881
  543DIO     H630394   0.039   5.147   8.936
  543DIO     H730395   0.027   5.561   9.081
  543DIO     H830396  -0.130   5.304   9.151
  543DIO     H930397  -0.166   5.283   8.785
  543DIO    H1030398  -0.305   5.180   8.808
  543DIO    H1130399  -0.364   5.421   8.752
  543DIO    H1230400  -0.322   5.589   8.937
  543DIO    H1330401  -0.175   5.529   8.862
  543DIO    H1430402  -0.454   5.343   9.035
  543DIO    H1530403  -0.531   5.461   8.930
  543DIO    H1630404  -0.518   5.158   8.885
  543DIO    H1730405  -0.657   5.253   8.934
  543DIO    H1830406  -0.647   5.376   8.712
  543DIO    H1930407  -0.517   5.267   8.662
  543DIO    H2030408  -0.677   5.202   8.697
  544DIO     F130409  10.904   4.715   3.360
  544DIO     C130410  10.826   4.656   3.267
  544DIO     C230411  10.682   4.656   3.284
  544DIO     C330412  10.593   4.591   3.185
  544DIO     C430413  10.659   4.527   3.068
  544DIO     C530414  10.803   4.528   3.054
  544DIO     F230415  10.858   4.473   2.944
  544DIO     C630416  10.887   4.593   3.152
  544DIO     F330417  11.020   4.592   3.138
  544DIO     C730418  10.447   4.589   3.201
  544DIO     C830419  10.370   4.463   3.190
  544DIO     C930420  10.225   4.462   3.205
  544DIO    C1030421  10.152   4.586   3.222
  544DIO    C1130422  10.225   4.711   3.240
  544DIO    C1230423  10.369   4.712   3.228
  544DIO     F430424  10.434   4.829   3.240
  544DIO     O130425  10.020   4.576   3.259
  544DIO    C1330426   9.926   4.668   3.215
  544DIO     O230427   9.925   4.750   3.120
  544DIO    C1430428   9.796   4.653   3.283
  544DIO    C1530429   9.730   4.522   3.298
  544DIO     F530430   9.793   4.410   3.257
  544DIO    C1630431   9.599   4.507   3.359
  544DIO    C1730432   9.524   4.623   3.402
  544DIO    C1830433   9.592   4.752   3.404
  544DIO    C1930434   9.724   4.767   3.345
  544DIO     F630435   9.786   4.885   3.363
  544DIO    C2030436   9.383   4.610   3.455
  544DIO     O330437   9.313   4.495   3.406
  544DIO    C2130438   9.269   4.511   3.272
  544DIO    C2230439   9.181   4.634   3.257
  544DIO    C2330440   9.261   4.753   3.308
  544DIO     O430441   9.306   4.730   3.442
  544DIO    C2430442   9.048   4.622   3.335
  544DIO    C2530443   8.957   4.505   3.296
  544DIO    C2630444   8.919   4.503   3.149
  544DIO     H130445  10.639   4.706   3.371
  544DIO     H230446  10.598   4.487   2.988
  544DIO     H330447  10.421   4.369   3.176
  544DIO     H430448  10.170   4.369   3.206
  544DIO     H530449  10.170   4.803   3.258
  544DIO     H630450   9.561   4.406   3.375
  544DIO     H730451   9.549   4.837   3.455
  544DIO     H830452   9.393   4.594   3.563
  544DIO     H930453   9.356   4.518   3.205
  544DIO    H1030454   9.217   4.419   3.243
  544DIO    H1130455   9.158   4.650   3.151
  544DIO    H1230456   9.200   4.844   3.309
  544DIO    H1330457   9.347   4.773   3.243
  544DIO    H1430458   9.068   4.615   3.443
  544DIO    H1530459   8.991   4.715   3.321
  544DIO    H1630460   9.004   4.410   3.323
  544DIO    H1730461   8.865   4.511   3.356
  544DIO    H1830462   8.875   4.599   3.118
  544DIO    H1930463   9.005   4.483   3.085
  544DIO    H2030464   8.845   4.424   3.131
  545DIO     F130465  10.974   1.419   9.723
  545DIO     C130466  10.897   1.504   9.653
  545DIO     C230467  10.753   1.487   9.656
  545DIO     C330468  10.664   1.577   9.579
  545DIO     C430469  10.729   1.685   9.502
  545DIO     C530470  10.874   1.700   9.501
  545DIO     F230471  10.929   1.802   9.433
  545DIO     C630472  10.957   1.610   9.576
  545DIO     F330473  11.091   1.624   9.574
  545DIO     C730474  10.518   1.561   9.579
  545DIO     C830475  10.440   1.556   9.453
  545DIO     C930476  10.296   1.541   9.453
  545DIO    C1030477  10.223   1.540   9.579
  545DIO    C1130478  10.296   1.537   9.705
  545DIO    C1230479  10.440   1.549   9.704
  545DIO     F430480  10.505   1.552   9.822
  545DIO     O130481  10.091   1.501   9.573
  545DIO    C1330482   9.996   1.557   9.659
  545DIO     O230483   9.996   1.661   9.729
  545DIO    C1430484   9.867   1.487   9.653
  545DIO    C1530485   9.801   1.457   9.524
  545DIO     F530486   9.864   1.484   9.408
  545DIO    C1630487   9.670   1.394   9.517
  545DIO    C1730488   9.594   1.366   9.638
  545DIO    C1830489   9.663   1.379   9.766
  545DIO    C1930490   9.795   1.440   9.773
  545DIO     F630491   9.857   1.437   9.893
  545DIO    C2030492   9.454   1.311   9.631
  545DIO     O330493   9.384   1.346   9.511
  545DIO    C2130494   9.340   1.481   9.510
  545DIO    C2230495   9.251   1.511   9.630
  545DIO    C2330496   9.332   1.475   9.755
  545DIO     O430497   9.376   1.339   9.749
  545DIO    C2430498   9.119   1.432   9.629
  545DIO    C2530499   9.028   1.456   9.507
  545DIO    C2630500   8.990   1.602   9.488
  545DIO     H130501  10.710   1.407   9.716
  545DIO     H230502  10.669   1.760   9.451
  545DIO     H330503  10.492   1.559   9.358
  545DIO     H430504  10.241   1.529   9.361
  545DIO     H530505  10.241   1.531   9.798
  545DIO     H630506   9.632   1.366   9.419
  545DIO     H730507   9.620   1.339   9.857
  545DIO     H830508   9.463   1.202   9.629
  545DIO     H930509   9.427   1.548   9.509
  545DIO    H1030510   9.288   1.498   9.416
  545DIO    H1130511   9.229   1.618   9.633
  545DIO    H1230512   9.271   1.486   9.845
  545DIO    H1330513   9.418   1.542   9.766
  545DIO    H1430514   9.139   1.324   9.635
  545DIO    H1530515   9.062   1.458   9.719
  545DIO    H1630516   9.075   1.418   9.416
  545DIO    H1730517   8.936   1.398   9.521
  545DIO    H1830518   8.946   1.644   9.578
  545DIO    H1930519   9.076   1.663   9.459
  545DIO    H2030520   8.916   1.611   9.407
  546DIO     F130521   5.049   9.556  10.172
  546DIO     C130522   4.971   9.626  10.257
  546DIO     C230523   4.827   9.623  10.240
  546DIO     C330524   4.738   9.700  10.330
  546DIO     C430525   4.804   9.777  10.438
  546DIO     C530526   4.948   9.778  10.453
  546DIO     F230527   5.003   9.846  10.555
  546DIO     C630528   5.032   9.702  10.363
  546DIO     F330529   5.166   9.705  10.377
  546DIO     C730530   4.592   9.699  10.314
  546DIO     C830531   4.515   9.826  10.310
  546DIO     C930532   4.370   9.825  10.294
  546DIO    C1030533   4.297   9.700  10.293
  546DIO    C1130534   4.370   9.574  10.290
  546DIO    C1230535   4.514   9.574  10.302
  546DIO     F430536   4.579   9.456  10.304
  546DIO     O130537   4.165   9.706  10.255
  546DIO    C1330538   4.071   9.620  10.310
  546DIO     O230539   4.070   9.550  10.414
  546DIO    C1430540   3.942   9.626  10.240
  546DIO    C1530541   3.875   9.755  10.210
  546DIO     F530542   3.938   9.871  10.237
  546DIO    C1630543   3.745   9.762  10.148
  546DIO    C1730544   3.669   9.641  10.119
  546DIO    C1830545   3.738   9.513  10.132
  546DIO    C1930546   3.869   9.506  10.193
  546DIO     F630547   3.932   9.386  10.189
  546DIO    C2030548   3.528   9.648  10.064
  546DIO     O330549   3.458   9.768  10.099
  546DIO    C2130550   3.415   9.769  10.235
  546DIO    C2230551   3.326   9.649  10.264
  546DIO    C2330552   3.407   9.524  10.227
  546DIO     O430553   3.451   9.531  10.092
  546DIO    C2430554   3.193   9.650  10.185
  546DIO    C2530555   3.102   9.772  10.210
  546DIO    C2630556   3.064   9.791  10.356
  546DIO     H130557   4.784   9.564  10.160
  546DIO     H230558   4.743   9.827  10.513
  546DIO     H330559   4.566   9.921  10.313
  546DIO     H430560   4.315   9.918  10.283
  546DIO     H530561   4.316   9.481  10.283
  546DIO     H630562   3.706   9.860  10.120
  546DIO     H730563   3.695   9.422  10.092
  546DIO     H830564   3.538   9.651   9.955
  546DIO     H930565   3.501   9.770  10.301
  546DIO    H1030566   3.362   9.863  10.252
  546DIO    H1130567   3.303   9.645  10.371
  546DIO    H1230568   3.345   9.434  10.238
  546DIO    H1330569   3.493   9.512  10.294
  546DIO    H1430570   3.213   9.645  10.077
  546DIO    H1530571   3.137   9.560  10.211
  546DIO    H1630572   3.150   9.863  10.172
  546DIO    H1730573   3.011   9.758  10.151
  546DIO    H1830574   3.020   9.700  10.397
  546DIO    H1930575   3.150   9.819  10.416
  546DIO    H2030576   2.990   9.872  10.364
  547DIO     F130577   9.287   8.182   3.798
  547DIO     C130578   9.209   8.280   3.749
  547DIO     C230579   9.065   8.263   3.747
  547DIO     C330580   8.977   8.367   3.692
  547DIO     C430581   9.042   8.490   3.640
  547DIO     C530582   9.186   8.504   3.642
  547DIO     F230583   9.242   8.619   3.598
  547DIO     C630584   9.270   8.400   3.697
  547DIO     F330585   9.404   8.414   3.697
  547DIO     C730586   8.830   8.352   3.689
  547DIO     C830587   8.753   8.375   3.564
  547DIO     C930588   8.608   8.360   3.562
  547DIO    C1030589   8.536   8.332   3.684
  547DIO    C1130590   8.608   8.301   3.806
  547DIO    C1230591   8.752   8.313   3.808
  547DIO     F430592   8.817   8.290   3.924
  547DIO     O130593   8.404   8.295   3.670
  547DIO    C1330594   8.309   8.331   3.765
  547DIO     O230595   8.308   8.417   3.857
  547DIO    C1430596   8.180   8.264   3.745
  547DIO    C1530597   8.114   8.262   3.612
  547DIO     F530598   8.176   8.314   3.505
  547DIO    C1630599   7.983   8.203   3.591
  547DIO    C1730600   7.907   8.149   3.704
  547DIO    C1830601   7.976   8.134   3.831
  547DIO    C1930602   8.107   8.192   3.852
  547DIO     F630603   8.170   8.162   3.968
  547DIO    C2030604   7.766   8.097   3.685
  547DIO     O330605   7.697   8.157   3.575
  547DIO    C2130606   7.653   8.289   3.604
  547DIO    C2230607   7.564   8.292   3.728
  547DIO    C2330608   7.645   8.229   3.841
  547DIO     O430609   7.689   8.099   3.806
  547DIO    C2430610   7.431   8.215   3.709
  547DIO    C2530611   7.341   8.265   3.596
  547DIO    C2630612   7.302   8.412   3.608
  547DIO     H130613   9.023   8.172   3.788
  547DIO     H230614   8.981   8.574   3.607
  547DIO     H330615   8.805   8.398   3.472
  547DIO     H430616   8.553   8.368   3.469
  547DIO     H530617   8.554   8.275   3.896
  547DIO     H630618   7.945   8.197   3.490
  547DIO     H730619   7.933   8.075   3.911
  547DIO     H830620   7.776   7.991   3.659
  547DIO     H930621   7.740   8.355   3.617
  547DIO    H1030622   7.600   8.326   3.516
  547DIO    H1130623   7.542   8.396   3.754
  547DIO    H1230624   7.584   8.221   3.932
  547DIO    H1330625   7.731   8.292   3.867
  547DIO    H1430626   7.451   8.109   3.691
  547DIO    H1530627   7.375   8.221   3.803
  547DIO    H1630628   7.388   8.248   3.499
  547DIO    H1730629   7.249   8.205   3.596
  547DIO    H1830630   7.258   8.433   3.706
  547DIO    H1930631   7.389   8.477   3.594
  547DIO    H2030632   7.229   8.438   3.531
  548DIO     F130633   4.878   9.533   3.590
  548DIO     C130634   4.800   9.522   3.700
  548DIO     C230635   4.656   9.532   3.686
  548DIO     C330636   4.567   9.523   3.804
  548DIO     C430637   4.633   9.501   3.935
  548DIO     C530638   4.777   9.491   3.946
  548DIO     F230639   4.832   9.467   4.067
  548DIO     C630640   4.861   9.501   3.829
  548DIO     F330641   4.994   9.493   3.841
  548DIO     C730642   4.421   9.534   3.793
  548DIO     C830643   4.344   9.626   3.879
  548DIO     C930644   4.199   9.637   3.868
  548DIO    C1030645   4.126   9.549   3.778
  548DIO    C1130646   4.199   9.462   3.687
  548DIO    C1230647   4.343   9.454   3.696
  548DIO     F430648   4.408   9.369   3.614
  548DIO     O130649   3.994   9.580   3.755
  548DIO    C1330650   3.900   9.481   3.733
  548DIO     O230651   3.899   9.357   3.758
  548DIO    C1430652   3.770   9.534   3.689
  548DIO    C1530653   3.704   9.646   3.758
  548DIO     F530654   3.767   9.710   3.859
  548DIO    C1630655   3.573   9.696   3.719
  548DIO    C1730656   3.498   9.631   3.613
  548DIO    C1830657   3.566   9.531   3.532
  548DIO    C1930658   3.698   9.482   3.570
  548DIO     F630659   3.760   9.401   3.483
  548DIO    C2030660   3.357   9.674   3.579
  548DIO     O330661   3.287   9.734   3.689
  548DIO    C2130662   3.243   9.639   3.785
  548DIO    C2230663   3.155   9.533   3.721
  548DIO    C2330664   3.235   9.471   3.607
  548DIO     O430665   3.280   9.571   3.516
  548DIO    C2430666   3.022   9.590   3.667
  548DIO    C2530667   2.931   9.659   3.770
  548DIO    C2630668   2.893   9.569   3.887
  548DIO     H130669   4.613   9.547   3.587
  548DIO     H230670   4.572   9.483   4.024
  548DIO     H330671   4.395   9.691   3.948
  548DIO     H430672   4.144   9.710   3.925
  548DIO     H530673   4.144   9.401   3.616
  548DIO     H630674   3.535   9.785   3.769
  548DIO     H730675   3.523   9.495   3.440
  548DIO     H830676   3.367   9.753   3.504
  548DIO     H930677   3.330   9.593   3.834
  548DIO    H1030678   3.191   9.693   3.864
  548DIO    H1130679   3.132   9.455   3.795
  548DIO    H1230680   3.174   9.400   3.551
  548DIO    H1330681   3.321   9.415   3.646
  548DIO    H1430682   3.042   9.662   3.586
  548DIO    H1530683   2.965   9.508   3.621
  548DIO    H1630684   2.978   9.750   3.807
  548DIO    H1730685   2.839   9.691   3.719
  548DIO    H1830686   2.849   9.475   3.852
  548DIO    H1930687   2.979   9.546   3.949
  548DIO    H2030688   2.819   9.620   3.950
  549DIO     F130689   6.911   7.239   1.980
  549DIO     C130690   6.833   7.131   1.999
  549DIO     C230691   6.689   7.147   2.005
  549DIO     C330692   6.600   7.030   2.027
  549DIO     C430693   6.666   6.898   2.041
  549DIO     C530694   6.810   6.885   2.034
  549DIO     F230695   6.865   6.762   2.043
  549DIO     C630696   6.894   7.001   2.013
  549DIO     F330697   7.027   6.987   2.008
  549DIO     C730698   6.454   7.044   2.035
  549DIO     C830699   6.377   6.986   2.147
  549DIO     C930700   6.232   6.999   2.154
  549DIO    C1030701   6.159   7.062   2.045
  549DIO    C1130702   6.232   7.128   1.938
  549DIO    C1230703   6.376   7.116   1.932
  549DIO     F430704   6.441   7.173   1.828
  549DIO     O130705   6.027   7.093   2.070
  549DIO    C1330706   5.933   7.087   1.968
  549DIO     O230707   5.932   7.031   1.855
  549DIO    C1430708   5.804   7.145   2.007
  549DIO    C1530709   5.737   7.108   2.134
  549DIO     F530710   5.800   7.027   2.222
  549DIO    C1630711   5.606   7.158   2.172
  549DIO    C1730712   5.531   7.243   2.081
  549DIO    C1830713   5.599   7.295   1.963
  549DIO    C1930714   5.731   7.245   1.926
  549DIO     F630715   5.794   7.308   1.824
  549DIO    C2030716   5.390   7.287   2.113
  549DIO     O330717   5.320   7.197   2.201
  549DIO    C2130718   5.277   7.079   2.134
  549DIO    C2230719   5.188   7.113   2.015
  549DIO    C2330720   5.268   7.206   1.925
  549DIO     O430721   5.313   7.321   1.998
  549DIO    C2430722   5.055   7.181   2.056
  549DIO    C2530723   4.964   7.100   2.149
  549DIO    C2630724   4.926   6.963   2.094
  549DIO     H130725   6.646   7.246   1.993
  549DIO     H230726   6.605   6.808   2.047
  549DIO     H330727   6.428   6.936   2.228
  549DIO     H430728   6.177   6.964   2.240
  549DIO     H530729   6.177   7.179   1.860
  549DIO     H630730   5.568   7.134   2.270
  549DIO     H730731   5.557   7.374   1.904
  549DIO     H830732   5.400   7.381   2.170
  549DIO     H930733   5.363   7.021   2.102
  549DIO    H1030734   5.224   7.018   2.208
  549DIO    H1130735   5.165   7.021   1.960
  549DIO    H1230736   5.207   7.242   1.841
  549DIO    H1330737   5.355   7.154   1.882
  549DIO    H1430738   5.075   7.277   2.104
  549DIO    H1530739   4.998   7.203   1.964
  549DIO    H1630740   5.012   7.087   2.247
  549DIO    H1730741   4.872   7.157   2.166
  549DIO    H1830742   4.882   6.972   1.994
  549DIO    H1930743   5.012   6.896   2.088
  549DIO    H2030744   4.852   6.916   2.160
  550DIO     F130745   2.333   6.790   8.570
  550DIO     C130746   2.256   6.722   8.656
  550DIO     C230747   2.112   6.737   8.650
  550DIO     C330748   2.023   6.666   8.744
  550DIO     C430749   2.088   6.576   8.842
  550DIO     C530750   2.233   6.562   8.846
  550DIO     F230751   2.288   6.477   8.934
  550DIO     C630752   2.316   6.634   8.753
  550DIO     F330753   2.450   6.621   8.759
  550DIO     C730754   1.877   6.681   8.740
  550DIO     C830755   1.799   6.713   8.863
  550DIO     C930756   1.655   6.727   8.859
  550DIO    C1030757   1.582   6.702   8.736
  550DIO    C1130758   1.655   6.678   8.612
  550DIO    C1230759   1.799   6.666   8.616
  550DIO     F430760   1.864   6.639   8.500
  550DIO     O130761   1.450   6.741   8.734
  550DIO    C1330762   1.355   6.668   8.662
  550DIO     O230763   1.355   6.551   8.615
  550DIO    C1430764   1.226   6.738   8.653
  550DIO    C1530765   1.160   6.795   8.772
  550DIO     F530766   1.223   6.793   8.891
  550DIO    C1630767   1.029   6.857   8.766
  550DIO    C1730768   0.953   6.860   8.642
  550DIO    C1830769   1.022   6.820   8.520
  550DIO    C1930770   1.154   6.758   8.525
  550DIO     F630771   1.216   6.737   8.407
  550DIO    C2030772   0.813   6.914   8.637
  550DIO     O330773   0.743   6.906   8.761
  550DIO    C2130774   0.699   6.774   8.791
  550DIO    C2230775   0.610   6.719   8.680
  550DIO    C2330776   0.691   6.729   8.550
  550DIO     O430777   0.735   6.862   8.528
  550DIO    C2430778   0.478   6.797   8.665
  550DIO    C2530779   0.387   6.799   8.788
  550DIO    C2630780   0.349   6.660   8.839
  550DIO     H130781   2.069   6.803   8.575
  550DIO     H230782   2.028   6.514   8.907
  550DIO     H330783   1.851   6.730   8.956
  550DIO     H430784   1.600   6.758   8.947
  550DIO     H530785   1.600   6.665   8.520
  550DIO     H630786   0.991   6.905   8.856
  550DIO     H730787   0.979   6.840   8.422
  550DIO     H830788   0.822   7.022   8.616
  550DIO     H930789   0.786   6.709   8.806
  550DIO    H1030790   0.647   6.777   8.887
  550DIO    H1130791   0.588   6.614   8.700
  550DIO    H1230792   0.630   6.699   8.465
  550DIO    H1330793   0.777   6.661   8.553
  550DIO    H1430794   0.498   6.901   8.636
  550DIO    H1530795   0.421   6.753   8.582
  550DIO    H1630796   0.434   6.855   8.869
  550DIO    H1730797   0.295   6.853   8.763
  550DIO    H1830798   0.305   6.600   8.758
  550DIO    H1930799   0.435   6.607   8.879
  550DIO    H2030800   0.275   6.669   8.919
  551DIO     F130801   6.899   9.005   0.738
  551DIO     C130802   6.822   8.898   0.762
  551DIO     C230803   6.677   8.914   0.767
  551DIO     C330804   6.589   8.799   0.796
  551DIO     C430805   6.654   8.668   0.817
  551DIO     C530806   6.798   8.654   0.811
  551DIO     F230807   6.854   8.532   0.826
  551DIO     C630808   6.882   8.769   0.783
  551DIO     F330809   7.016   8.755   0.779
  551DIO     C730810   6.442   8.814   0.803
  551DIO     C830811   6.365   8.761   0.918
  551DIO     C930812   6.220   8.775   0.924
  551DIO    C1030813   6.148   8.832   0.812
  551DIO    C1130814   6.220   8.891   0.701
  551DIO    C1230815   6.364   8.880   0.696
  551DIO     F430816   6.429   8.931   0.590
  551DIO     O130817   6.016   8.864   0.835
  551DIO    C1330818   5.921   8.853   0.734
  551DIO     O230819   5.920   8.791   0.624
  551DIO    C1430820   5.792   8.912   0.770
  551DIO    C1530821   5.726   8.882   0.899
  551DIO     F530822   5.788   8.806   0.991
  551DIO    C1630823   5.595   8.934   0.934
  551DIO    C1730824   5.519   9.014   0.838
  551DIO    C1830825   5.588   9.060   0.718
  551DIO    C1930826   5.720   9.008   0.684
  551DIO     F630827   5.782   9.065   0.578
  551DIO    C2030828   5.378   9.060   0.868
  551DIO     O330829   5.309   8.975   0.960
  551DIO    C2130830   5.265   8.854   0.901
  551DIO    C2230831   5.176   8.881   0.780
  551DIO    C2330832   5.257   8.969   0.685
  551DIO     O430833   5.301   9.088   0.751
  551DIO    C2430834   5.043   8.951   0.817
  551DIO    C2530835   4.953   8.875   0.914
  551DIO    C2630836   4.914   8.736   0.866
  551DIO     H130837   6.635   9.012   0.750
  551DIO     H230838   6.594   8.579   0.828
  551DIO     H330839   6.417   8.716   1.002
  551DIO     H430840   6.165   8.744   1.012
  551DIO     H530841   6.166   8.939   0.621
  551DIO     H630842   5.557   8.916   1.033
  551DIO     H730843   5.545   9.136   0.654
  551DIO     H830844   5.388   9.157   0.920
  551DIO     H930845   5.352   8.793   0.872
  551DIO    H1030846   5.212   8.796   0.977
  551DIO    H1130847   5.154   8.787   0.729
  551DIO    H1230848   5.196   9.000   0.599
  551DIO    H1330849   5.343   8.915   0.644
  551DIO    H1430850   5.063   9.050   0.859
  551DIO    H1530851   4.987   8.968   0.724
  551DIO    H1630852   5.000   8.868   1.013
  551DIO    H1730853   4.861   8.933   0.928
  551DIO    H1830854   4.870   8.739   0.766
  551DIO    H1930855   5.001   8.669   0.864
  551DIO    H2030856   4.841   8.692   0.934
  552DIO     F130857   7.701  10.464   3.135
  552DIO     C130858   7.623  10.570   3.106
  552DIO     C230859   7.479  10.554   3.102
  552DIO     C330860   7.390  10.668   3.069
  552DIO     C430861   7.456  10.798   3.043
  552DIO     C530862   7.600  10.812   3.048
  552DIO     F230863   7.655  10.933   3.028
  552DIO     C630864   7.684  10.699   3.080
  552DIO     F330865   7.817  10.713   3.083
  552DIO     C730866   7.244  10.653   3.062
  552DIO     C830867   7.167  10.701   2.945
  552DIO     C930868   7.022  10.687   2.940
  552DIO    C1030869   6.949  10.634   3.054
  552DIO    C1130870   7.022  10.579   3.167
  552DIO    C1230871   7.166  10.591   3.172
  552DIO     F430872   7.231  10.545   3.280
  552DIO     O130873   6.817  10.601   3.032
  552DIO    C1330874   6.723  10.617   3.133
  552DIO     O230875   6.722  10.683   3.240
  552DIO    C1430876   6.594  10.556   3.100
  552DIO    C1530877   6.527  10.581   2.970
  552DIO     F530878   6.590  10.653   2.874
  552DIO    C1630879   6.396  10.527   2.937
  552DIO    C1730880   6.321  10.451   3.036
  552DIO    C1830881   6.389  10.411   3.158
  552DIO    C1930882   6.521  10.464   3.190
  552DIO     F630883   6.584  10.411   3.297
  552DIO    C2030884   6.180  10.404   3.007
  552DIO     O330885   6.110  10.485   2.912
  552DIO    C2130886   6.067  10.609   2.966
  552DIO    C2230887   5.978  10.587   3.088
  552DIO    C2330888   6.058  10.502   3.187
  552DIO     O430889   6.103  10.381   3.126
  552DIO    C2430890   5.845  10.515   3.054
  552DIO    C2530891   5.754  10.587   2.954
  552DIO    C2630892   5.716  10.728   2.996
  552DIO     H130893   7.436  10.457   3.123
  552DIO     H230894   7.395  10.887   3.027
  552DIO     H330895   7.218  10.742   2.860
  552DIO     H430896   6.967  10.714   2.851
  552DIO     H530897   6.967  10.536   3.250
  552DIO     H630898   6.358  10.541   2.837
  552DIO     H730899   6.347  10.337   3.224
  552DIO     H830900   6.190  10.306   2.960
  552DIO     H930901   6.153  10.670   2.993
  552DIO    H1030902   6.014  10.663   2.888
  552DIO    H1130903   5.955  10.683   3.135
  552DIO    H1230904   5.997  10.475   3.274
  552DIO    H1330905   6.145  10.558   3.225
  552DIO    H1430906   5.865  10.415   3.016
  552DIO    H1530907   5.788  10.502   3.148
  552DIO    H1630908   5.802  10.590   2.855
  552DIO    H1730909   5.662  10.528   2.942
  552DIO    H1830910   5.672  10.729   3.096
  552DIO    H1930911   5.802  10.795   2.995
  552DIO    H2030912   5.642  10.769   2.926
  553DIO     F130913   4.065   0.100   9.992
  553DIO     C130914   3.987   0.197   9.939
  553DIO     C230915   3.843   0.180   9.939
  553DIO     C330916   3.754   0.284   9.881
  553DIO     C430917   3.820   0.405   9.826
  553DIO     C530918   3.964   0.419   9.828
  553DIO     F230919   4.019   0.533   9.781
  553DIO     C630920   4.048   0.316   9.885
  553DIO     F330921   4.181   0.331   9.885
  553DIO     C730922   3.608   0.268   9.878
  553DIO     C830923   3.531   0.288   9.753
  553DIO     C930924   3.386   0.273   9.751
  553DIO    C1030925   3.313   0.247   9.874
  553DIO    C1130926   3.386   0.220   9.997
  553DIO    C1230927   3.530   0.232   9.998
  553DIO     F430928   3.595   0.212  10.115
  553DIO     O130929   3.181   0.211   9.860
  553DIO    C1330930   3.087   0.248   9.955
  553DIO     O230931   3.086   0.337  10.044
  553DIO    C1430932   2.957   0.181   9.936
  553DIO    C1530933   2.891   0.176   9.804
  553DIO     F530934   2.954   0.225   9.695
  553DIO    C1630935   2.760   0.116   9.784
  553DIO    C1730936   2.685   0.065   9.898
  553DIO    C1830937   2.753   0.054  10.026
  553DIO    C1930938   2.885   0.112  10.045
  553DIO     F630939   2.947   0.085  10.161
  553DIO    C2030940   2.544   0.013   9.881
  553DIO     O330941   2.474   0.070   9.769
  553DIO    C2130942   2.430   0.203   9.794
  553DIO    C2230943   2.342   0.209   9.918
  553DIO    C2330944   2.422   0.149  10.033
  553DIO     O430945   2.467   0.018  10.001
  553DIO    C2430946   2.209   0.132   9.901
  553DIO    C2530947   2.118   0.179   9.787
  553DIO    C2630948   2.080   0.326   9.796
  553DIO     H130949   3.800   0.091   9.982
  553DIO     H230950   3.759   0.488   9.791
  553DIO     H330951   3.582   0.309   9.660
  553DIO     H430952   3.331   0.279   9.658
  553DIO     H530953   3.331   0.196  10.087
  553DIO     H630954   2.722   0.108   9.683
  553DIO     H730955   2.710  -0.003  10.107
  553DIO     H830956   2.554  -0.094   9.857
  553DIO     H930957   2.517   0.269   9.806
  553DIO    H1030958   2.378   0.238   9.705
  553DIO    H1130959   2.319   0.314   9.942
  553DIO    H1230960   2.361   0.142  10.124
  553DIO    H1330961   2.508   0.213  10.058
  553DIO    H1430962   2.229   0.025   9.886
  553DIO    H1530963   2.152   0.140   9.995
  553DIO    H1630964   2.165   0.159   9.690
  553DIO    H1730965   2.026   0.119   9.789
  553DIO    H1830966   2.036   0.350   9.893
  553DIO    H1930967   2.166   0.391   9.780
  553DIO    H2030968   2.006   0.350   9.719
  554DIO     F130969   7.605   1.381  10.706
  554DIO     C130970   7.527   1.320  10.615
  554DIO     C230971   7.383   1.321  10.632
  554DIO     C330972   7.294   1.253  10.535
  554DIO     C430973   7.360   1.186  10.420
  554DIO     C530974   7.504   1.187  10.405
  554DIO     F230975   7.559   1.129  10.297
  554DIO     C630976   7.588   1.254  10.502
  554DIO     F330977   7.721   1.252  10.488
  554DIO     C730978   7.148   1.252  10.551
  554DIO     C830979   7.071   1.126  10.543
  554DIO     C930980   6.926   1.124  10.559
  554DIO    C1030981   6.853   1.249  10.571
  554DIO    C1130982   6.926   1.374  10.587
  554DIO    C1230983   7.070   1.375  10.574
  554DIO     F430984   7.135   1.493  10.583
  554DIO     O130985   6.721   1.240  10.609
  554DIO    C1330986   6.627   1.330  10.562
  554DIO     O230987   6.626   1.410  10.465
  554DIO    C1430988   6.497   1.318  10.631
  554DIO    C1530989   6.431   1.187  10.649
  554DIO     F530990   6.494   1.074  10.611
  554DIO    C1630991   6.300   1.173  10.711
  554DIO    C1730992   6.225   1.292  10.751
  554DIO    C1830993   6.293   1.420  10.749
  554DIO    C1930994   6.425   1.433  10.689
  554DIO     F630995   6.487   1.552  10.704
  554DIO    C2030996   6.084   1.280  10.804
  554DIO     O330997   6.014   1.163  10.758
  554DIO    C2130998   5.970   1.175  10.624
  554DIO    C2230999   5.882   1.298  10.605
  554DIO    C2331000   5.962   1.418  10.653
  554DIO     O431001   6.007   1.399  10.787
  554DIO    C2431002   5.749   1.288  10.684
  554DIO    C2531003   5.658   1.170  10.648
  554DIO    C2631004   5.620   1.164  10.501
  554DIO     H131005   7.340   1.373  10.717
  554DIO     H231006   7.299   1.143  10.341
  554DIO     H331007   7.122   1.031  10.532
  554DIO     H431008   6.871   1.032  10.562
  554DIO     H531009   6.871   1.467  10.602
  554DIO     H631010   6.262   1.074  10.729
  554DIO     H731011   6.250   1.507  10.798
  554DIO     H831012   6.094   1.267  10.913
  554DIO     H931013   6.057   1.180  10.557
  554DIO    H1031014   5.918   1.083  10.597
  554DIO    H1131015   5.859   1.311  10.499
  554DIO    H1231016   5.901   1.509  10.651
  554DIO    H1331017   6.048   1.436  10.588
  554DIO    H1431018   5.769   1.284  10.791
  554DIO    H1531019   5.692   1.381  10.667
  554DIO    H1631020   5.705   1.076  10.677
  554DIO    H1731021   5.566   1.178  10.708
  554DIO    H1831022   5.576   1.259  10.468
  554DIO    H1931023   5.706   1.142  10.438
  554DIO    H2031024   5.546   1.085  10.485
  555DIO     F131025   8.166   8.450   4.963
  555DIO     C131026   8.089   8.485   5.068
  555DIO     C231027   7.945   8.488   5.051
  555DIO     C331028   7.856   8.528   5.163
  555DIO     C431029   7.921   8.562   5.291
  555DIO     C531030   8.066   8.558   5.305
  555DIO     F231031   8.121   8.585   5.425
  555DIO     C631032   8.149   8.519   5.194
  555DIO     F331033   8.283   8.516   5.208
  555DIO     C731034   7.709   8.534   5.148
  555DIO     C831035   7.632   8.653   5.188
  555DIO     C931036   7.488   8.658   5.174
  555DIO    C1031037   7.415   8.541   5.128
  555DIO    C1131038   7.487   8.425   5.080
  555DIO    C1231039   7.632   8.421   5.092
  555DIO     F431040   7.696   8.310   5.052
  555DIO     O131041   7.283   8.561   5.094
  555DIO    C1331042   7.188   8.461   5.116
  555DIO     O231043   7.187   8.358   5.188
  555DIO    C1431044   7.059   8.491   5.053
  555DIO    C1531045   6.993   8.622   5.070
  555DIO     F531046   7.055   8.721   5.136
  555DIO    C1631047   6.862   8.651   5.014
  555DIO    C1731048   6.786   8.548   4.944
  555DIO    C1831049   6.855   8.424   4.912
  555DIO    C1931050   6.987   8.395   4.966
  555DIO     F631051   7.049   8.285   4.920
  555DIO    C2031052   6.646   8.574   4.896
  555DIO     O331053   6.576   8.674   4.971
  555DIO    C2131054   6.532   8.627   5.098
  555DIO    C2231055   6.443   8.504   5.083
  555DIO    C2331056   6.524   8.400   5.004
  555DIO     O431057   6.568   8.454   4.880
  555DIO    C2431058   6.310   8.533   5.010
  555DIO    C2531059   6.220   8.638   5.076
  555DIO    C2631060   6.181   8.605   5.219
  555DIO     H131061   7.902   8.461   4.955
  555DIO     H231062   7.861   8.582   5.379
  555DIO     H331063   7.684   8.741   5.225
  555DIO     H431064   7.432   8.749   5.196
  555DIO     H531065   7.433   8.340   5.041
  555DIO     H631066   6.824   8.752   5.023
  555DIO     H731067   6.812   8.353   4.842
  555DIO     H831068   6.655   8.615   4.795
  555DIO     H931069   6.619   8.604   5.161
  555DIO    H1031070   6.479   8.709   5.148
  555DIO    H1131071   6.421   8.463   5.182
  555DIO    H1231072   6.463   8.312   4.983
  555DIO    H1331073   6.610   8.366   5.063
  555DIO    H1431074   6.330   8.566   4.907
  555DIO    H1531075   6.254   8.440   5.001
  555DIO    H1631076   6.267   8.737   5.072
  555DIO    H1731077   6.128   8.646   5.016
  555DIO    H1831078   6.137   8.505   5.226
  555DIO    H1931079   6.268   8.609   5.286
  555DIO    H2031080   6.108   8.677   5.256
  556DIO     F131081   2.691   9.737   7.250
  556DIO     C131082   2.613   9.646   7.188
  556DIO     C231083   2.469   9.654   7.203
  556DIO     C331084   2.380   9.555   7.138
  556DIO     C431085   2.446   9.450   7.056
  556DIO     C531086   2.590   9.445   7.042
  556DIO     F231087   2.646   9.351   6.963
  556DIO     C631088   2.674   9.543   7.107
  556DIO     F331089   2.808   9.537   7.094
  556DIO     C731090   2.234   9.559   7.153
  556DIO     C831091   2.157   9.440   7.193
  556DIO     C931092   2.012   9.444   7.208
  556DIO    C1031093   1.940   9.565   7.173
  556DIO    C1131094   2.012   9.687   7.141
  556DIO    C1231095   2.156   9.683   7.130
  556DIO     F431096   2.221   9.796   7.094
  556DIO     O131097   1.807   9.570   7.212
  556DIO    C1331098   1.713   9.637   7.135
  556DIO     O231099   1.712   9.675   7.015
  556DIO    C1431100   1.584   9.651   7.203
  556DIO    C1531101   1.518   9.536   7.269
  556DIO     F531102   1.580   9.416   7.275
  556DIO    C1631103   1.387   9.546   7.331
  556DIO    C1731104   1.311   9.670   7.324
  556DIO    C1831105   1.380   9.789   7.276
  556DIO    C1931106   1.511   9.779   7.215
  556DIO     F631107   1.574   9.895   7.185
  556DIO    C2031108   1.170   9.679   7.379
  556DIO     O331109   1.101   9.554   7.379
  556DIO    C2131110   1.057   9.515   7.249
  556DIO    C2231111   0.968   9.622   7.187
  556DIO    C2331112   1.049   9.752   7.187
  556DIO     O431113   1.093   9.784   7.319
  556DIO    C2431114   0.835   9.643   7.263
  556DIO    C2531115   0.745   9.520   7.274
  556DIO    C2631116   0.706   9.460   7.139
  556DIO     H131117   2.427   9.733   7.263
  556DIO     H231118   2.385   9.381   6.998
  556DIO     H331119   2.208   9.347   7.217
  556DIO     H431120   1.957   9.359   7.245
  556DIO     H531121   1.958   9.778   7.121
  556DIO     H631122   1.349   9.460   7.385
  556DIO     H731123   1.337   9.888   7.289
  556DIO     H831124   1.180   9.707   7.484
  556DIO     H931125   1.144   9.495   7.185
  556DIO    H1031126   1.004   9.420   7.259
  556DIO    H1131127   0.945   9.595   7.083
  556DIO    H1231128   0.988   9.836   7.152
  556DIO    H1331129   1.135   9.745   7.120
  556DIO    H1431130   0.855   9.679   7.365
  556DIO    H1531131   0.779   9.722   7.213
  556DIO    H1631132   0.792   9.443   7.336
  556DIO    H1731133   0.653   9.549   7.326
  556DIO    H1831134   0.662   9.535   7.073
  556DIO    H1931135   0.793   9.416   7.089
  556DIO    H2031136   0.632   9.380   7.153
  557DIO     F131137   9.423   1.203   9.087
  557DIO     C131138   9.346   1.107   9.034
  557DIO     C231139   9.202   1.115   9.049
  557DIO     C331140   9.113   1.010   8.994
  557DIO     C431141   9.178   0.899   8.922
  557DIO     C531142   9.323   0.892   8.909
  557DIO     F231143   9.378   0.791   8.839
  557DIO     C631144   9.406   0.996   8.964
  557DIO     F331145   9.540   0.988   8.952
  557DIO     C731146   8.966   1.017   9.008
  557DIO     C831147   8.889   0.901   9.059
  557DIO     C931148   8.745   0.907   9.073
  557DIO    C1031149   8.672   1.024   9.028
  557DIO    C1131150   8.744   1.142   8.984
  557DIO    C1231151   8.889   1.137   8.973
  557DIO     F431152   8.953   1.246   8.927
  557DIO     O131153   8.540   1.033   9.066
  557DIO    C1331154   8.445   1.092   8.983
  557DIO     O231155   8.444   1.118   8.859
  557DIO    C1431156   8.316   1.112   9.049
  557DIO    C1531157   8.250   1.004   9.125
  557DIO     F531158   8.312   0.886   9.144
  557DIO    C1631159   8.119   1.020   9.186
  557DIO    C1731160   8.043   1.143   9.168
  557DIO    C1831161   8.112   1.257   9.108
  557DIO    C1931162   8.244   1.241   9.048
  557DIO     F631163   8.306   1.354   9.008
  557DIO    C2031164   7.903   1.158   9.221
  557DIO     O331165   7.833   1.033   9.233
  557DIO    C2131166   7.789   0.982   9.108
  557DIO    C2231167   7.700   1.082   9.036
  557DIO    C2331168   7.781   1.212   9.023
  557DIO     O431169   7.825   1.256   9.151
  557DIO    C2431170   7.567   1.110   9.110
  557DIO    C2531171   7.477   0.989   9.132
  557DIO    C2631172   7.438   0.916   9.004
  557DIO     H131173   9.159   1.200   9.101
  557DIO     H231174   9.118   0.824   8.871
  557DIO     H331175   8.941   0.812   9.092
  557DIO     H431176   8.689   0.826   9.119
  557DIO     H531177   8.690   1.231   8.955
  557DIO     H631178   8.081   0.940   9.248
  557DIO     H731179   8.069   1.356   9.111
  557DIO     H831180   7.912   1.195   9.323
  557DIO     H931181   7.876   0.956   9.046
  557DIO    H1031182   7.736   0.888   9.127
  557DIO    H1131183   7.678   1.045   8.935
  557DIO    H1231184   7.720   1.291   8.980
  557DIO    H1331185   7.867   1.198   8.957
  557DIO    H1431186   7.587   1.156   9.207
  557DIO    H1531187   7.511   1.185   9.052
  557DIO    H1631188   7.524   0.918   9.201
  557DIO    H1731189   7.385   1.023   9.182
  557DIO    H1831190   7.394   0.985   8.931
  557DIO    H1931191   7.525   0.868   8.958
  557DIO    H2031192   7.365   0.838   9.026
  558DIO     F131193   3.660  -0.330  -0.017
  558DIO     C131194   3.582  -0.225   0.016
  558DIO     C231195   3.438  -0.236   0.004
  558DIO     C331196   3.349  -0.123   0.037
  558DIO     C431197   3.415   0.001   0.086
  558DIO     C531198   3.559   0.010   0.098
  558DIO     F231199   3.615   0.122   0.146
  558DIO     C631200   3.643  -0.103   0.064
  558DIO     F331201   3.777  -0.093   0.074
  558DIO     C731202   3.203  -0.132   0.024
  558DIO     C831203   3.126  -0.029  -0.049
  558DIO     C931204   2.981  -0.037  -0.061
  558DIO    C1031205   2.909  -0.143   0.006
  558DIO    C1131206   2.981  -0.250   0.072
  558DIO    C1231207   3.125  -0.243   0.082
  558DIO     F431208   3.190  -0.341   0.149
  558DIO     O131209   2.776  -0.159  -0.029
  558DIO    C1331210   2.682  -0.201   0.064
  558DIO     O231211   2.681  -0.203   0.190
  558DIO    C1431212   2.553  -0.234   0.002
  558DIO    C1531213   2.487  -0.142  -0.093
  558DIO     F531214   2.549  -0.030  -0.134
  558DIO    C1631215   2.356  -0.170  -0.150
  558DIO    C1731216   2.280  -0.287  -0.108
  558DIO    C1831217   2.349  -0.387  -0.027
  558DIO    C1931218   2.480  -0.360   0.028
  558DIO     F631219   2.543  -0.463   0.090
  558DIO    C2031220   2.139  -0.311  -0.157
  558DIO     O331221   2.070  -0.192  -0.194
  558DIO    C2131222   2.026  -0.117  -0.081
  558DIO    C2231223   1.937  -0.202   0.010
  558DIO    C2331224   2.018  -0.326   0.047
  558DIO     O431225   2.062  -0.394  -0.070
  558DIO    C2431226   1.804  -0.243  -0.057
  558DIO    C2531227   1.714  -0.128  -0.103
  558DIO    C2631228   1.675  -0.032   0.009
  558DIO     H131229   3.396  -0.330  -0.031
  558DIO     H231230   3.354   0.084   0.121
  558DIO     H331231   3.177   0.053  -0.098
  558DIO     H431232   2.926   0.034  -0.121
  558DIO     H531233   2.927  -0.332   0.118
  558DIO     H631234   2.318  -0.103  -0.226
  558DIO     H731235   2.306  -0.485  -0.011
  558DIO     H831236   2.149  -0.368  -0.250
  558DIO     H931237   2.113  -0.080  -0.025
  558DIO    H1031238   1.973  -0.029  -0.117
  558DIO    H1131239   1.914  -0.146   0.101
  558DIO    H1231240   1.957  -0.396   0.105
  558DIO    H1331241   2.104  -0.299   0.110
  558DIO    H1431242   1.824  -0.307  -0.144
  558DIO    H1531243   1.748  -0.305   0.014
  558DIO    H1631244   1.761  -0.073  -0.184
  558DIO    H1731245   1.622  -0.172  -0.145
  558DIO    H1831246   1.631  -0.086   0.093
  558DIO    H1931247   1.762   0.024   0.044
  558DIO    H2031248   1.601   0.040  -0.028
  559DIO     F131249   3.743   3.429   3.661
  559DIO     C131250   3.665   3.435   3.551
  559DIO     C231251   3.521   3.425   3.565
  559DIO     C331252   3.432   3.429   3.447
  559DIO     C431253   3.498   3.446   3.315
  559DIO     C531254   3.642   3.455   3.304
  559DIO     F231255   3.697   3.474   3.183
  559DIO     C631256   3.726   3.450   3.421
  559DIO     F331257   3.860   3.458   3.409
  559DIO     C731258   3.286   3.419   3.459
  559DIO     C831259   3.209   3.323   3.377
  559DIO     C931260   3.064   3.313   3.389
  559DIO    C1031261   2.991   3.405   3.474
  559DIO    C1131262   3.064   3.495   3.562
  559DIO    C1231263   3.208   3.503   3.552
  559DIO     F431264   3.273   3.592   3.631
  559DIO     O131265   2.859   3.374   3.499
  559DIO    C1331266   2.765   3.475   3.516
  559DIO     O231267   2.764   3.597   3.486
  559DIO    C1431268   2.636   3.424   3.563
  559DIO    C1531269   2.569   3.308   3.499
  559DIO     F531270   2.632   3.241   3.400
  559DIO    C1631271   2.439   3.260   3.539
  559DIO    C1731272   2.363   3.330   3.643
  559DIO    C1831273   2.432   3.433   3.719
  559DIO    C1931274   2.563   3.480   3.679
  559DIO     F631275   2.626   3.566   3.763
  559DIO    C2031276   2.222   3.288   3.678
  559DIO     O331277   2.152   3.223   3.571
  559DIO    C2131278   2.109   3.314   3.471
  559DIO    C2231279   2.020   3.423   3.530
  559DIO    C2331280   2.101   3.490   3.641
  559DIO     O431281   2.145   3.394   3.737
  559DIO    C2431282   1.887   3.368   3.587
  559DIO    C2531283   1.796   3.295   3.487
  559DIO    C2631284   1.758   3.379   3.367
  559DIO     H131285   3.478   3.415   3.665
  559DIO     H231286   3.437   3.459   3.226
  559DIO     H331287   3.260   3.255   3.311
  559DIO     H431288   3.009   3.237   3.335
  559DIO     H531289   3.010   3.560   3.630
  559DIO     H631290   2.400   3.169   3.494
  559DIO     H731291   2.389   3.473   3.810
  559DIO     H831292   2.232   3.212   3.757
  559DIO     H931293   2.195   3.358   3.421
  559DIO    H1031294   2.056   3.256   3.394
  559DIO    H1131295   1.997   3.497   3.453
  559DIO    H1231296   2.039   3.564   3.694
  559DIO    H1331297   2.187   3.544   3.600
  559DIO    H1431298   1.907   3.300   3.671
  559DIO    H1531299   1.831   3.452   3.630
  559DIO    H1631300   1.844   3.202   3.454
  559DIO    H1731301   1.705   3.266   3.540
  559DIO    H1831302   1.714   3.475   3.397
  559DIO    H1931303   1.844   3.400   3.303
  559DIO    H2031304   1.684   3.326   3.306
  560DIO     F131305  10.065   7.808   7.137
  560DIO     C131306   9.988   7.913   7.102
  560DIO     C231307   9.844   7.896   7.099
  560DIO     C331308   9.755   8.008   7.059
  560DIO     C431309   9.820   8.137   7.026
  560DIO     C531310   9.965   8.151   7.031
  560DIO     F231311  10.020   8.271   7.004
  560DIO     C631312  10.048   8.040   7.069
  560DIO     F331313  10.182   8.053   7.072
  560DIO     C731314   9.608   7.993   7.054
  560DIO     C831315   9.531   8.034   6.934
  560DIO     C931316   9.387   8.020   6.929
  560DIO    C1031317   9.314   7.974   7.046
  560DIO    C1131318   9.386   7.925   7.162
  560DIO    C1231319   9.531   7.937   7.166
  560DIO     F431320   9.595   7.897   7.277
  560DIO     O131321   9.182   7.940   7.027
  560DIO    C1331322   9.087   7.960   7.127
  560DIO     O231323   9.086   8.033   7.230
  560DIO    C1431324   8.958   7.898   7.096
  560DIO    C1531325   8.892   7.915   6.965
  560DIO     F531326   8.954   7.983   6.866
  560DIO    C1631327   8.761   7.860   6.935
  560DIO    C1731328   8.685   7.790   7.038
  560DIO    C1831329   8.754   7.756   7.162
  560DIO    C1931330   8.886   7.811   7.191
  560DIO     F631331   8.948   7.764   7.302
  560DIO    C2031332   8.545   7.741   7.013
  560DIO     O331333   8.475   7.817   6.913
  560DIO    C2131334   8.431   7.944   6.961
  560DIO    C2231335   8.342   7.928   7.083
  560DIO    C2331336   8.423   7.849   7.187
  560DIO     O431337   8.467   7.725   7.132
  560DIO    C2431338   8.209   7.855   7.053
  560DIO    C2531339   8.119   7.921   6.949
  560DIO    C2631340   8.080   8.064   6.983
  560DIO     H131341   9.801   7.800   7.126
  560DIO     H231342   9.760   8.224   7.006
  560DIO     H331343   9.583   8.071   6.847
  560DIO     H431344   9.331   8.042   6.839
  560DIO     H531345   9.332   7.886   7.247
  560DIO     H631346   8.723   7.869   6.834
  560DIO     H731347   8.711   7.686   7.233
  560DIO     H831348   8.554   7.640   6.971
  560DIO     H931349   8.518   8.006   6.983
  560DIO    H1031350   8.378   7.994   6.879
  560DIO    H1131351   8.320   8.027   7.125
  560DIO    H1231352   8.362   7.827   7.275
  560DIO    H1331353   8.509   7.907   7.222
  560DIO    H1431354   8.229   7.752   7.020
  560DIO    H1531355   8.153   7.846   7.147
  560DIO    H1631356   8.166   7.919   6.850
  560DIO    H1731357   8.027   7.862   6.941
  560DIO    H1831358   8.036   8.071   7.083
  560DIO    H1931359   8.167   8.131   6.979
  560DIO    H2031360   8.007   8.101   6.911
  561DIO     F131361   3.674   5.344   2.742
  561DIO     C131362   3.596   5.282   2.834
  561DIO     C231363   3.452   5.298   2.826
  561DIO     C331364   3.363   5.234   2.926
  561DIO     C431365   3.429   5.152   3.031
  561DIO     C531366   3.573   5.138   3.036
  561DIO     F231367   3.628   5.060   3.131
  561DIO     C631368   3.657   5.203   2.938
  561DIO     F331369   3.790   5.190   2.944
  561DIO     C731370   3.217   5.249   2.921
  561DIO     C831371   3.140   5.290   3.040
  561DIO     C931372   2.995   5.304   3.036
  561DIO    C1031373   2.922   5.269   2.915
  561DIO    C1131374   2.995   5.236   2.794
  561DIO    C1231375   3.139   5.224   2.798
  561DIO     F431376   3.204   5.188   2.685
  561DIO     O131377   2.790   5.308   2.910
  561DIO    C1331378   2.696   5.230   2.844
  561DIO     O231379   2.695   5.109   2.807
  561DIO    C1431380   2.567   5.298   2.829
  561DIO    C1531381   2.500   5.364   2.944
  561DIO     F531382   2.563   5.372   3.063
  561DIO    C1631383   2.369   5.426   2.933
  561DIO    C1731384   2.294   5.419   2.809
  561DIO    C1831385   2.362   5.369   2.690
  561DIO    C1931386   2.494   5.308   2.701
  561DIO     F631387   2.557   5.278   2.585
  561DIO    C2031388   2.153   5.473   2.799
  561DIO     O331389   2.083   5.474   2.924
  561DIO    C2131390   2.040   5.345   2.964
  561DIO    C2231391   1.951   5.282   2.858
  561DIO    C2331392   2.031   5.281   2.728
  561DIO     O431393   2.076   5.412   2.695
  561DIO    C2431394   1.818   5.358   2.837
  561DIO    C2531395   1.727   5.369   2.960
  561DIO    C2631396   1.689   5.236   3.021
  561DIO     H131397   3.409   5.357   2.746
  561DIO     H231398   3.368   5.095   3.101
  561DIO     H331399   3.191   5.314   3.132
  561DIO     H431400   2.940   5.342   3.121
  561DIO     H531401   2.940   5.215   2.703
  561DIO     H631402   2.331   5.481   3.018
  561DIO     H731403   2.320   5.381   2.591
  561DIO     H831404   2.163   5.578   2.771
  561DIO     H931405   2.126   5.281   2.985
  561DIO    H1031406   1.987   5.355   3.060
  561DIO    H1131407   1.928   5.178   2.886
  561DIO    H1231408   1.970   5.245   2.645
  561DIO    H1331409   2.118   5.214   2.736
  561DIO    H1431410   1.838   5.459   2.800
  561DIO    H1531411   1.761   5.307   2.757
  561DIO    H1631412   1.775   5.432   3.036
  561DIO    H1731413   1.635   5.422   2.930
  561DIO    H1831414   1.645   5.169   2.946
  561DIO    H1931415   1.775   5.185   3.065
  561DIO    H2031416   1.615   5.250   3.100
  562DIO     F131417   6.651   3.380   7.655
  562DIO     C131418   6.573   3.331   7.754
  562DIO     C231419   6.429   3.345   7.744
  562DIO     C331420   6.340   3.294   7.851
  562DIO     C431421   6.406   3.227   7.966
  562DIO     C531422   6.550   3.214   7.973
  562DIO     F231423   6.605   3.148   8.076
  562DIO     C631424   6.634   3.265   7.867
  562DIO     F331425   6.767   3.253   7.875
  562DIO     C731426   6.194   3.309   7.844
  562DIO     C831427   6.117   3.364   7.958
  562DIO     C931428   5.972   3.378   7.951
  562DIO    C1031429   5.899   3.328   7.836
  562DIO    C1131430   5.972   3.279   7.720
  562DIO    C1231431   6.116   3.268   7.726
  562DIO     F431432   6.181   3.218   7.619
  562DIO     O131433   5.767   3.365   7.826
  562DIO    C1331434   5.673   3.280   7.770
  562DIO     O231435   5.672   3.156   7.749
  562DIO    C1431436   5.543   3.346   7.747
  562DIO    C1531437   5.477   3.426   7.852
  562DIO     F531438   5.540   3.449   7.970
  562DIO    C1631439   5.346   3.486   7.834
  562DIO    C1731440   5.271   3.463   7.711
  562DIO    C1831441   5.339   3.398   7.600
  562DIO    C1931442   5.471   3.340   7.618
  562DIO     F631443   5.533   3.294   7.507
  562DIO    C2031444   5.130   3.515   7.695
  562DIO     O331445   5.060   3.533   7.819
  562DIO    C2131446   5.016   3.410   7.875
  562DIO    C2231447   4.928   3.333   7.778
  562DIO    C2331448   5.008   3.316   7.649
  562DIO     O431449   5.053   3.442   7.600
  562DIO    C2431450   4.795   3.406   7.747
  562DIO    C2531451   4.704   3.433   7.867
  562DIO    C2631452   4.666   3.308   7.945
  562DIO     H131453   6.386   3.394   7.657
  562DIO     H231454   6.345   3.179   8.042
  562DIO     H331455   6.168   3.400   8.046
  562DIO     H431456   5.917   3.426   8.031
  562DIO     H531457   5.917   3.247   7.632
  562DIO     H631458   5.308   3.551   7.911
  562DIO     H731459   5.296   3.398   7.501
  562DIO     H831460   5.140   3.616   7.653
  562DIO     H931461   5.103   3.349   7.904
  562DIO    H1031462   4.964   3.432   7.968
  562DIO    H1131463   4.905   3.234   7.819
  562DIO    H1231464   4.947   3.269   7.571
  562DIO    H1331465   5.094   3.250   7.666
  562DIO    H1431466   4.815   3.502   7.697
  562DIO    H1531467   4.738   3.346   7.675
  562DIO    H1631468   4.751   3.505   7.935
  562DIO    H1731469   4.612   3.481   7.831
  562DIO    H1831470   4.622   3.233   7.879
  562DIO    H1931471   4.752   3.264   7.995
  562DIO    H2031472   4.592   3.333   8.022
  563DIO     F131473   3.931   3.125   5.266
  563DIO     C131474   3.853   3.032   5.207
  563DIO     C231475   3.709   3.039   5.222
  563DIO     C331476   3.620   2.938   5.161
  563DIO     C431477   3.686   2.831   5.083
  563DIO     C531478   3.830   2.825   5.069
  563DIO     F231479   3.886   2.728   4.994
  563DIO     C631480   3.914   2.925   5.131
  563DIO     F331481   4.048   2.918   5.118
  563DIO     C731482   3.474   2.943   5.176
  563DIO     C831483   3.397   2.825   5.221
  563DIO     C931484   3.252   2.830   5.235
  563DIO    C1031485   3.180   2.950   5.196
  563DIO    C1131486   3.252   3.070   5.159
  563DIO    C1231487   3.396   3.066   5.148
  563DIO     F431488   3.461   3.177   5.108
  563DIO     O131489   3.047   2.956   5.235
  563DIO    C1331490   2.953   3.020   5.155
  563DIO     O231491   2.952   3.054   5.034
  563DIO    C1431492   2.824   3.036   5.223
  563DIO    C1531493   2.758   2.924   5.293
  563DIO     F531494   2.820   2.805   5.304
  563DIO    C1631495   2.627   2.936   5.354
  563DIO    C1731496   2.551   3.061   5.343
  563DIO    C1831497   2.620   3.178   5.290
  563DIO    C1931498   2.751   3.165   5.229
  563DIO     F631499   2.814   3.280   5.195
  563DIO    C2031500   2.410   3.072   5.397
  563DIO     O331501   2.341   2.947   5.402
  563DIO    C2131502   2.297   2.903   5.274
  563DIO    C2231503   2.208   3.007   5.208
  563DIO    C2331504   2.289   3.137   5.203
  563DIO     O431505   2.333   3.174   5.333
  563DIO    C2431506   2.075   3.031   5.283
  563DIO    C2531507   1.985   2.908   5.298
  563DIO    C2631508   1.946   2.843   5.166
  563DIO     H131509   3.667   3.121   5.279
  563DIO     H231510   3.625   2.759   5.028
  563DIO     H331511   3.448   2.734   5.248
  563DIO     H431512   3.197   2.746   5.275
  563DIO     H531513   3.198   3.161   5.136
  563DIO     H631514   2.589   2.853   5.411
  563DIO     H731515   2.577   3.277   5.299
  563DIO     H831516   2.420   3.103   5.501
  563DIO     H931517   2.384   2.880   5.211
  563DIO    H1031518   2.244   2.808   5.287
  563DIO    H1131519   2.185   2.976   5.105
  563DIO    H1231520   2.228   3.219   5.164
  563DIO    H1331521   2.375   3.127   5.136
  563DIO    H1431522   2.095   3.071   5.383
  563DIO    H1531523   2.019   3.109   5.230
  563DIO    H1631524   2.032   2.834   5.363
  563DIO    H1731525   1.893   2.940   5.350
  563DIO    H1831526   1.902   2.916   5.097
  563DIO    H1931527   2.033   2.797   5.117
  563DIO    H2031528   1.872   2.764   5.183
  564DIO     F131529   4.062   8.169   1.653
  564DIO     C131530   3.984   8.059   1.665
  564DIO     C231531   3.840   8.075   1.672
  564DIO     C331532   3.751   7.957   1.687
  564DIO     C431533   3.817   7.825   1.693
  564DIO     C531534   3.961   7.812   1.686
  564DIO     F231535   4.017   7.689   1.687
  564DIO     C631536   4.045   7.928   1.671
  564DIO     F331537   4.179   7.915   1.666
  564DIO     C731538   3.605   7.971   1.696
  564DIO     C831539   3.528   7.906   1.804
  564DIO     C931540   3.383   7.919   1.812
  564DIO    C1031541   3.311   7.988   1.707
  564DIO    C1131542   3.383   8.060   1.603
  564DIO    C1231543   3.527   8.049   1.597
  564DIO     F431544   3.592   8.111   1.497
  564DIO     O131545   3.178   8.017   1.733
  564DIO    C1331546   3.084   8.018   1.631
  564DIO     O231547   3.083   7.968   1.515
  564DIO    C1431548   2.955   8.073   1.674
  564DIO    C1531549   2.889   8.028   1.798
  564DIO     F531550   2.951   7.942   1.881
  564DIO    C1631551   2.758   8.076   1.839
  564DIO    C1731552   2.682   8.167   1.753
  564DIO    C1831553   2.751   8.225   1.638
  564DIO    C1931554   2.882   8.178   1.599
  564DIO     F631555   2.945   8.246   1.501
  564DIO    C2031556   2.541   8.209   1.788
  564DIO     O331557   2.472   8.114   1.870
  564DIO    C2131558   2.428   8.000   1.797
  564DIO    C2231559   2.339   8.041   1.680
  564DIO    C2331560   2.420   8.139   1.596
  564DIO     O431561   2.464   8.249   1.674
  564DIO    C2431562   2.206   8.106   1.724
  564DIO    C2531563   2.116   8.019   1.813
  564DIO    C2631564   2.077   7.886   1.750
  564DIO     H131565   3.798   8.174   1.665
  564DIO     H231566   3.756   7.735   1.694
  564DIO     H331567   3.579   7.852   1.882
  564DIO     H431568   3.328   7.879   1.896
  564DIO     H531569   3.329   8.116   1.529
  564DIO     H631570   2.720   8.047   1.936
  564DIO     H731571   2.708   8.308   1.584
  564DIO     H831572   2.551   8.299   1.850
  564DIO     H931573   2.515   7.943   1.762
  564DIO    H1031574   2.375   7.934   1.867
  564DIO    H1131575   2.316   7.952   1.619
  564DIO    H1231576   2.359   8.179   1.514
  564DIO    H1331577   2.506   8.089   1.549
  564DIO    H1431578   2.226   8.199   1.778
  564DIO    H1531579   2.150   8.134   1.635
  564DIO    H1631580   2.163   8.002   1.910
  564DIO    H1731581   2.024   8.076   1.833
  564DIO    H1831582   2.033   7.901   1.651
  564DIO    H1931583   2.164   7.820   1.740
  564DIO    H2031584   2.003   7.835   1.813
  565DIO     F131585   8.855   3.482   1.294
  565DIO     C131586   8.777   3.509   1.188
  565DIO     C231587   8.633   3.497   1.200
  565DIO     C331588   8.544   3.524   1.084
  565DIO     C431589   8.610   3.565   0.958
  565DIO     C531590   8.754   3.576   0.949
  565DIO     F231591   8.810   3.618   0.833
  565DIO     C631592   8.838   3.549   1.063
  565DIO     F331593   8.972   3.559   1.053
  565DIO     C731594   8.398   3.511   1.094
  565DIO     C831595   8.321   3.433   0.995
  565DIO     C931596   8.176   3.421   1.005
  565DIO    C1031597   8.104   3.494   1.106
  565DIO    C1131598   8.176   3.566   1.210
  565DIO    C1231599   8.320   3.576   1.202
  565DIO     F431600   8.385   3.648   1.295
  565DIO     O131601   7.971   3.460   1.124
  565DIO    C1331602   7.877   3.555   1.161
  565DIO     O231603   7.876   3.681   1.155
  565DIO    C1431604   7.748   3.496   1.197
  565DIO    C1531605   7.681   3.395   1.112
  565DIO     F531606   7.744   3.347   1.002
  565DIO    C1631607   7.551   3.340   1.143
  565DIO    C1731608   7.475   3.389   1.257
  565DIO    C1831609   7.544   3.476   1.352
  565DIO    C1931610   7.675   3.529   1.322
  565DIO     F631611   7.738   3.597   1.420
  565DIO    C2031612   7.334   3.341   1.284
  565DIO     O331613   7.264   3.298   1.167
  565DIO    C2131614   7.221   3.406   1.086
  565DIO    C2231615   7.132   3.501   1.165
  565DIO    C2331616   7.213   3.546   1.287
  565DIO     O431617   7.257   3.434   1.362
  565DIO    C2431618   6.999   3.437   1.210
  565DIO    C2531619   6.908   3.385   1.098
  565DIO    C2631620   6.870   3.490   0.996
  565DIO     H131621   8.591   3.468   1.295
  565DIO     H231622   8.549   3.595   0.873
  565DIO     H331623   8.372   3.378   0.917
  565DIO     H431624   8.121   3.356   0.938
  565DIO     H531625   8.122   3.617   1.288
  565DIO     H631626   7.513   3.260   1.081
  565DIO     H731627   7.501   3.498   1.449
  565DIO     H831628   7.344   3.252   1.347
  565DIO     H931629   7.307   3.459   1.045
  565DIO    H1031630   7.168   3.364   1.000
  565DIO    H1131631   7.109   3.589   1.104
  565DIO    H1231632   7.152   3.608   1.353
  565DIO    H1331633   7.299   3.607   1.256
  565DIO    H1431634   7.019   3.354   1.279
  565DIO    H1531635   6.943   3.511   1.268
  565DIO    H1631636   6.956   3.300   1.048
  565DIO    H1731637   6.817   3.345   1.144
  565DIO    H1831638   6.826   3.578   1.044
  565DIO    H1931639   6.957   3.522   0.937
  565DIO    H2031640   6.796   3.449   0.926
  566DIO     F131641   6.495   9.356   5.573
  566DIO     C131642   6.417   9.246   5.569
  566DIO     C231643   6.273   9.260   5.578
  566DIO     C331644   6.184   9.142   5.576
  566DIO     C431645   6.250   9.010   5.561
  566DIO     C531646   6.394   8.998   5.552
  566DIO     F231647   6.449   8.877   5.535
  566DIO     C631648   6.478   9.116   5.555
  566DIO     F331649   6.612   9.104   5.548
  566DIO     C731650   6.038   9.154   5.586
  566DIO     C831651   5.961   9.074   5.683
  566DIO     C931652   5.816   9.085   5.693
  566DIO    C1031653   5.743   9.170   5.600
  566DIO    C1131654   5.816   9.256   5.508
  566DIO    C1231655   5.960   9.246   5.500
  566DIO     F431656   6.025   9.323   5.410
  566DIO     O131657   5.611   9.194   5.630
  566DIO    C1331658   5.517   9.210   5.529
  566DIO     O231659   5.516   9.178   5.407
  566DIO    C1431660   5.388   9.258   5.580
  566DIO    C1531661   5.321   9.195   5.696
  566DIO     F531662   5.384   9.098   5.765
  566DIO    C1631663   5.191   9.237   5.743
  566DIO    C1731664   5.115   9.339   5.672
  566DIO    C1831665   5.184   9.414   5.567
  566DIO    C1931666   5.315   9.373   5.521
  566DIO     F631667   5.378   9.455   5.434
  566DIO    C2031668   4.974   9.375   5.713
  566DIO     O331669   4.904   9.270   5.780
  566DIO    C2131670   4.861   9.168   5.691
  566DIO    C2231671   4.772   9.225   5.581
  566DIO    C2331672   4.853   9.335   5.512
  566DIO     O431673   4.897   9.432   5.606
  566DIO    C2431674   4.639   9.283   5.635
  566DIO    C2531675   4.548   9.184   5.709
  566DIO    C2631676   4.510   9.062   5.627
  566DIO     H131677   6.230   9.360   5.586
  566DIO     H231678   6.189   8.921   5.549
  566DIO     H331679   6.012   9.009   5.752
  566DIO     H431680   5.761   9.033   5.770
  566DIO     H531681   5.762   9.322   5.442
  566DIO     H631682   5.152   9.193   5.835
  566DIO     H731683   5.141   9.504   5.526
  566DIO     H831684   4.984   9.455   5.787
  566DIO     H931685   4.947   9.117   5.647
  566DIO    H1031686   4.808   9.092   5.749
  566DIO    H1131687   4.749   9.147   5.508
  566DIO    H1231688   4.791   9.387   5.437
  566DIO    H1331689   4.939   9.293   5.459
  566DIO    H1431690   4.659   9.368   5.702
  566DIO    H1531691   4.583   9.324   5.550
  566DIO    H1631692   4.596   9.152   5.802
  566DIO    H1731693   4.457   9.237   5.738
  566DIO    H1831694   4.466   9.091   5.531
  566DIO    H1931695   4.596   8.998   5.608
  566DIO    H2031696   4.436   9.002   5.681
  567DIO     F131697   8.146   2.761   9.651
  567DIO     C131698   8.068   2.871   9.661
  567DIO     C231699   7.924   2.857   9.651
  567DIO     C331700   7.835   2.975   9.658
  567DIO     C431701   7.901   3.107   9.679
  567DIO     C531702   8.045   3.118   9.688
  567DIO     F231703   8.100   3.238   9.711
  567DIO     C631704   8.129   3.000   9.680
  567DIO     F331705   8.262   3.012   9.688
  567DIO     C731706   7.689   2.963   9.647
  567DIO     C831707   7.612   3.048   9.554
  567DIO     C931708   7.467   3.037   9.543
  567DIO    C1031709   7.394   2.949   9.633
  567DIO    C1131710   7.467   2.859   9.721
  567DIO    C1231711   7.611   2.868   9.729
  567DIO     F431712   7.676   2.787   9.815
  567DIO     O131713   7.262   2.925   9.601
  567DIO    C1331714   7.168   2.905   9.702
  567DIO     O231715   7.167   2.931   9.825
  567DIO    C1431716   7.039   2.859   9.649
  567DIO    C1531717   6.972   2.927   9.535
  567DIO     F531718   7.035   3.028   9.471
  567DIO    C1631719   6.841   2.888   9.486
  567DIO    C1731720   6.766   2.783   9.553
  567DIO    C1831721   6.834   2.703   9.654
  567DIO    C1931722   6.966   2.742   9.702
  567DIO     F631723   7.029   2.655   9.785
  567DIO    C2031724   6.625   2.748   9.511
  567DIO     O331725   6.555   2.857   9.449
  567DIO    C2131726   6.512   2.955   9.542
  567DIO    C2231727   6.423   2.892   9.649
  567DIO    C2331728   6.503   2.779   9.713
  567DIO     O431729   6.548   2.687   9.614
  567DIO    C2431730   6.290   2.837   9.593
  567DIO    C2531731   6.199   2.939   9.523
  567DIO    C2631732   6.161   3.057   9.611
  567DIO     H131733   7.881   2.758   9.638
  567DIO     H231734   7.840   3.195   9.695
  567DIO     H331735   7.663   3.116   9.488
  567DIO     H431736   7.412   3.093   9.469
  567DIO     H531737   7.412   2.789   9.783
  567DIO     H631738   6.803   2.936   9.397
  567DIO     H731739   6.792   2.611   9.692
  567DIO     H831740   6.635   2.672   9.432
  567DIO     H931741   6.598   3.004   9.588
  567DIO    H1031742   6.459   3.033   9.487
  567DIO    H1131743   6.400   2.967   9.726
  567DIO    H1231744   6.442   2.724   9.785
  567DIO    H1331745   6.590   2.819   9.768
  567DIO    H1431746   6.310   2.755   9.522
  567DIO    H1531747   6.233   2.792   9.676
  567DIO    H1631748   6.247   2.975   9.431
  567DIO    H1731749   6.107   2.887   9.492
  567DIO    H1831750   6.117   3.024   9.705
  567DIO    H1931751   6.247   3.120   9.633
  567DIO    H2031752   6.087   3.119   9.559
  568DIO     F131753  10.020   5.654   7.127
  568DIO     C131754   9.942   5.732   7.050
  568DIO     C231755   9.798   5.716   7.054
  568DIO     C331756   9.709   5.799   6.969
  568DIO     C431757   9.775   5.900   6.883
  568DIO     C531758   9.919   5.915   6.881
  568DIO     F231759   9.975   6.011   6.804
  568DIO     C631760  10.003   5.832   6.964
  568DIO     F331761  10.137   5.845   6.960
  568DIO     C731762   9.563   5.783   6.971
  568DIO     C831763   9.486   5.767   6.846
  568DIO     C931764   9.341   5.752   6.847
  568DIO    C1031765   9.269   5.762   6.973
  568DIO    C1131766   9.341   5.770   7.098
  568DIO    C1231767   9.485   5.782   7.097
  568DIO     F431768   9.550   5.795   7.214
  568DIO     O131769   9.136   5.723   6.970
  568DIO    C1331770   9.042   5.786   7.051
  568DIO     O231771   9.041   5.896   7.111
  568DIO    C1431772   8.913   5.716   7.051
  568DIO    C1531773   8.846   5.674   6.925
  568DIO     F531774   8.909   5.691   6.807
  568DIO    C1631775   8.716   5.612   6.923
  568DIO    C1731776   8.640   5.594   7.046
  568DIO    C1831777   8.709   5.618   7.172
  568DIO    C1931778   8.840   5.680   7.174
  568DIO     F631779   8.903   5.686   7.294
  568DIO    C2031780   8.499   5.539   7.044
  568DIO     O331781   8.429   5.563   6.922
  568DIO    C2131782   8.386   5.698   6.909
  568DIO    C2231783   8.297   5.738   7.026
  568DIO    C2331784   8.378   5.712   7.153
  568DIO     O431785   8.422   5.577   7.159
  568DIO    C2431786   8.164   5.659   7.031
  568DIO    C2531787   8.073   5.673   6.908
  568DIO    C2631788   8.035   5.816   6.876
  568DIO     H131789   9.756   5.641   7.120
  568DIO     H231790   9.714   5.970   6.826
  568DIO     H331791   9.537   5.762   6.751
  568DIO     H431792   9.286   5.733   6.756
  568DIO     H531793   9.287   5.772   7.192
  568DIO     H631794   8.678   5.575   6.828
  568DIO     H731795   8.666   5.586   7.266
  568DIO     H831796   8.509   5.430   7.051
  568DIO     H931797   8.472   5.764   6.902
  568DIO    H1031798   8.333   5.707   6.813
  568DIO    H1131799   8.274   5.845   7.020
  568DIO    H1231800   8.317   5.731   7.242
  568DIO    H1331801   8.464   5.780   7.159
  568DIO    H1431802   8.184   5.552   7.046
  568DIO    H1531803   8.108   5.692   7.119
  568DIO    H1631804   8.121   5.627   6.821
  568DIO    H1731805   7.982   5.615   6.927
  568DIO    H1831806   7.991   5.866   6.963
  568DIO    H1931807   8.122   5.874   6.843
  568DIO    H2031808   7.961   5.818   6.795
  569DIO     F131809   4.431   3.181   0.740
  569DIO     C131810   4.353   3.073   0.762
  569DIO     C231811   4.209   3.089   0.767
  569DIO     C331812   4.120   2.974   0.793
  569DIO     C431813   4.186   2.842   0.810
  569DIO     C531814   4.330   2.829   0.804
  569DIO     F231815   4.385   2.706   0.816
  569DIO     C631816   4.414   2.944   0.779
  569DIO     F331817   4.548   2.930   0.775
  569DIO     C731818   3.974   2.988   0.800
  569DIO     C831819   3.897   2.933   0.914
  569DIO     C931820   3.752   2.946   0.920
  569DIO    C1031821   3.679   3.006   0.810
  569DIO    C1131822   3.752   3.068   0.701
  569DIO    C1231823   3.896   3.057   0.695
  569DIO     F431824   3.961   3.111   0.590
  569DIO     O131825   3.547   3.037   0.834
  569DIO    C1331826   3.453   3.029   0.732
  569DIO     O231827   3.452   2.970   0.621
  569DIO    C1431828   3.324   3.087   0.770
  569DIO    C1531829   3.257   3.054   0.898
  569DIO     F531830   3.320   2.975   0.988
  569DIO    C1631831   3.127   3.105   0.934
  569DIO    C1731832   3.051   3.188   0.841
  569DIO    C1831833   3.120   3.236   0.721
  569DIO    C1931834   3.251   3.186   0.686
  569DIO     F631835   3.314   3.246   0.582
  569DIO    C2031836   2.910   3.233   0.872
  569DIO     O331837   2.840   3.145   0.962
  569DIO    C2131838   2.797   3.025   0.899
  569DIO    C2231839   2.708   3.056   0.779
  569DIO    C2331840   2.789   3.147   0.686
  569DIO     O431841   2.833   3.263   0.755
  569DIO    C2431842   2.575   3.125   0.818
  569DIO    C2531843   2.484   3.046   0.913
  569DIO    C2631844   2.446   2.908   0.862
  569DIO     H131845   4.166   3.188   0.753
  569DIO     H231846   4.125   2.752   0.819
  569DIO     H331847   3.948   2.885   0.996
  569DIO     H431848   3.697   2.913   1.007
  569DIO     H531849   3.698   3.118   0.621
  569DIO     H631850   3.088   3.084   1.033
  569DIO     H731851   3.077   3.314   0.660
  569DIO     H831852   2.920   3.328   0.926
  569DIO     H931853   2.883   2.966   0.868
  569DIO    H1031854   2.744   2.966   0.974
  569DIO    H1131855   2.685   2.963   0.726
  569DIO    H1231856   2.727   3.180   0.602
  569DIO    H1331857   2.875   3.093   0.644
  569DIO    H1431858   2.595   3.223   0.863
  569DIO    H1531859   2.519   3.145   0.726
  569DIO    H1631860   2.532   3.037   1.011
  569DIO    H1731861   2.393   3.104   0.929
  569DIO    H1831862   2.402   2.914   0.762
  569DIO    H1931863   2.532   2.841   0.858
  569DIO    H2031864   2.372   2.863   0.928
  570DIO     F131865   6.722   9.962   6.729
  570DIO     C131866   6.644   9.991   6.623
  570DIO     C231867   6.500   9.979   6.634
  570DIO     C331868   6.411  10.009   6.520
  570DIO     C431869   6.477  10.053   6.395
  570DIO     C531870   6.621  10.065   6.385
  570DIO     F231871   6.677  10.109   6.271
  570DIO     C631872   6.705  10.034   6.499
  570DIO     F331873   6.839  10.044   6.489
  570DIO     C731874   6.265   9.996   6.529
  570DIO     C831875   6.188   9.920   6.428
  570DIO     C931876   6.043   9.907   6.437
  570DIO    C1031877   5.971   9.979   6.541
  570DIO    C1131878   6.043  10.048   6.646
  570DIO    C1231879   6.187  10.058   6.638
  570DIO     F431880   6.252  10.127   6.734
  570DIO     O131881   5.838   9.943   6.558
  570DIO    C1331882   5.744  10.038   6.597
  570DIO     O231883   5.743  10.164   6.594
  570DIO    C1431884   5.615   9.978   6.632
  570DIO    C1531885   5.549   9.879   6.544
  570DIO     F531886   5.611   9.834   6.433
  570DIO    C1631887   5.418   9.823   6.573
  570DIO    C1731888   5.342   9.869   6.689
  570DIO    C1831889   5.411   9.954   6.786
  570DIO    C1931890   5.542  10.008   6.757
  570DIO     F631891   5.605  10.073   6.858
  570DIO    C2031892   5.201   9.821   6.715
  570DIO     O331893   5.132   9.780   6.597
  570DIO    C2131894   5.088   9.891   6.518
  570DIO    C2231895   4.999   9.984   6.600
  570DIO    C2331896   5.080  10.025   6.723
  570DIO     O431897   5.124   9.911   6.795
  570DIO    C2431898   4.866   9.918   6.643
  570DIO    C2531899   4.776   9.869   6.530
  570DIO    C2631900   4.737   9.977   6.430
  570DIO     H131901   6.458   9.948   6.729
  570DIO     H231902   6.416  10.086   6.311
  570DIO     H331903   6.239   9.868   6.349
  570DIO     H431904   5.988   9.845   6.369
  570DIO     H531905   5.989  10.096   6.726
  570DIO     H631906   5.380   9.745   6.509
  570DIO     H731907   5.368   9.973   6.884
  570DIO     H831908   5.211   9.730   6.775
  570DIO     H931909   5.175   9.945   6.479
  570DIO    H1031910   5.035   9.851   6.431
  570DIO    H1131911   4.976  10.074   6.541
  570DIO    H1231912   5.019  10.086   6.790
  570DIO    H1331913   5.166  10.087   6.694
  570DIO    H1431914   4.886   9.834   6.710
  570DIO    H1531915   4.810   9.991   6.703
  570DIO    H1631916   4.823   9.785   6.477
  570DIO    H1731917   4.684   9.829   6.575
  570DIO    H1831918   4.693  10.064   6.481
  570DIO    H1931919   4.824  10.011   6.373
  570DIO    H2031920   4.663   9.938   6.359
  571DIO     F131921   5.724   8.741   5.091
  571DIO     C131922   5.646   8.766   5.198
  571DIO     C231923   5.502   8.771   5.182
  571DIO     C331924   5.413   8.800   5.296
  571DIO     C431925   5.479   8.822   5.427
  571DIO     C531926   5.623   8.816   5.441
  571DIO     F231927   5.678   8.832   5.563
  571DIO     C631928   5.707   8.788   5.327
  571DIO     F331929   5.840   8.784   5.341
  571DIO     C731930   5.267   8.807   5.282
  571DIO     C831931   5.190   8.922   5.333
  571DIO     C931932   5.045   8.929   5.319
  571DIO    C1031933   4.972   8.816   5.263
  571DIO    C1131934   5.045   8.705   5.205
  571DIO    C1231935   5.189   8.700   5.216
  571DIO     F431936   5.254   8.593   5.166
  571DIO     O131937   4.840   8.839   5.231
  571DIO    C1331938   4.746   8.737   5.243
  571DIO     O231939   4.745   8.628   5.306
  571DIO    C1431940   4.617   8.773   5.183
  571DIO    C1531941   4.550   8.902   5.212
  571DIO     F531942   4.613   8.995   5.288
  571DIO    C1631943   4.419   8.937   5.160
  571DIO    C1731944   4.344   8.840   5.081
  571DIO    C1831945   4.412   8.720   5.036
  571DIO    C1931946   4.544   8.686   5.088
  571DIO     F631947   4.607   8.580   5.032
  571DIO    C2031948   4.203   8.870   5.035
  571DIO     O331949   4.133   8.963   5.119
  571DIO    C2131950   4.090   8.904   5.241
  571DIO    C2231951   4.001   8.783   5.214
  571DIO    C2331952   4.081   8.688   5.127
  571DIO     O431953   4.126   8.753   5.008
  571DIO    C2431954   3.868   8.820   5.144
  571DIO    C2531955   3.777   8.918   5.220
  571DIO    C2631956   3.739   8.871   5.359
  571DIO     H131957   5.459   8.753   5.084
  571DIO     H231958   5.418   8.834   5.517
  571DIO     H331959   5.241   9.007   5.377
  571DIO     H431960   4.990   9.017   5.349
  571DIO     H531961   4.990   8.624   5.158
  571DIO     H631962   4.381   9.037   5.178
  571DIO     H731963   4.370   8.656   4.960
  571DIO     H831964   4.213   8.921   4.938
  571DIO     H931965   4.176   8.876   5.301
  571DIO    H1031966   4.037   8.981   5.298
  571DIO    H1131967   3.978   8.733   5.309
  571DIO    H1231968   4.020   8.602   5.097
  571DIO    H1331969   4.168   8.648   5.182
  571DIO    H1431970   3.888   8.862   5.045
  571DIO    H1531971   3.811   8.727   5.127
  571DIO    H1631972   3.825   9.016   5.225
  571DIO    H1731973   3.685   8.931   5.161
  571DIO    H1831974   3.695   8.771   5.357
  571DIO    H1931975   3.825   8.870   5.426
  571DIO    H2031976   3.665   8.940   5.402
  572DIO     F131977   7.618   2.513   2.953
  572DIO     C131978   7.541   2.576   2.863
  572DIO     C231979   7.397   2.561   2.870
  572DIO     C331980   7.308   2.626   2.771
  572DIO     C431981   7.373   2.709   2.668
  572DIO     C531982   7.518   2.723   2.663
  572DIO     F231983   7.573   2.803   2.569
  572DIO     C631984   7.601   2.657   2.760
  572DIO     F331985   7.735   2.670   2.754
  572DIO     C731986   7.161   2.611   2.776
  572DIO     C831987   7.084   2.572   2.656
  572DIO     C931988   6.940   2.557   2.661
  572DIO    C1031989   6.867   2.591   2.782
  572DIO    C1131990   6.939   2.622   2.904
  572DIO    C1231991   7.084   2.634   2.900
  572DIO     F431992   7.148   2.668   3.013
  572DIO     O131993   6.735   2.552   2.786
  572DIO    C1331994   6.640   2.629   2.854
  572DIO     O231995   6.639   2.748   2.893
  572DIO    C1431996   6.511   2.560   2.867
  572DIO    C1531997   6.445   2.496   2.752
  572DIO     F531998   6.507   2.490   2.632
  572DIO    C1631999   6.314   2.433   2.761
  572DIO    C1732000   6.238   2.439   2.886
  572DIO    C1832001   6.307   2.487   3.005
  572DIO    C1932002   6.439   2.548   2.996
  572DIO     F632003   6.501   2.576   3.112
  572DIO    C2032004   6.098   2.385   2.894
  572DIO     O332005   6.028   2.385   2.769
  572DIO    C2132006   5.984   2.515   2.731
  572DIO    C2232007   5.895   2.577   2.839
  572DIO    C2332008   5.976   2.576   2.969
  572DIO     O432009   6.020   2.444   2.999
  572DIO    C2432010   5.762   2.500   2.859
  572DIO    C2532011   5.672   2.491   2.736
  572DIO    C2632012   5.633   2.625   2.677
  572DIO     H132013   7.354   2.500   2.949
  572DIO     H232014   7.313   2.767   2.599
  572DIO     H332015   7.136   2.549   2.564
  572DIO     H432016   6.884   2.521   2.575
  572DIO     H532017   6.885   2.641   2.995
  572DIO     H632018   6.276   2.380   2.675
  572DIO     H732019   6.264   2.473   3.104
  572DIO     H832020   6.107   2.279   2.921
  572DIO     H932021   6.071   2.579   2.712
  572DIO    H1032022   5.931   2.506   2.636
  572DIO    H1132023   5.873   2.681   2.812
  572DIO    H1232024   5.915   2.611   3.052
  572DIO    H1332025   6.062   2.643   2.962
  572DIO    H1432026   5.782   2.398   2.894
  572DIO    H1532027   5.706   2.550   2.939
  572DIO    H1632028   5.719   2.429   2.658
  572DIO    H1732029   5.580   2.438   2.765
  572DIO    H1832030   5.589   2.691   2.753
  572DIO    H1932031   5.720   2.676   2.633
  572DIO    H2032032   5.560   2.612   2.597
  573DIO     F132033   8.629   6.846   1.352
  573DIO     C132034   8.552   6.929   1.279
  573DIO     C232035   8.408   6.912   1.282
  573DIO     C332036   8.319   6.999   1.202
  573DIO     C432037   8.384   7.105   1.121
  573DIO     C532038   8.529   7.119   1.119
  573DIO     F232039   8.584   7.219   1.048
  573DIO     C632040   8.612   7.032   1.198
  573DIO     F332041   8.746   7.046   1.195
  573DIO     C732042   8.172   6.983   1.203
  573DIO     C832043   8.095   6.974   1.077
  573DIO     C932044   7.951   6.959   1.078
  573DIO    C1032045   7.878   6.962   1.203
  573DIO    C1132046   7.950   6.964   1.329
  573DIO    C1232047   8.095   6.976   1.328
  573DIO     F432048   8.159   6.983   1.446
  573DIO     O132049   7.746   6.924   1.198
  573DIO    C1332050   7.651   6.982   1.282
  573DIO     O232051   7.650   7.089   1.349
  573DIO    C1432052   7.522   6.913   1.279
  573DIO    C1532053   7.456   6.877   1.152
  573DIO     F532054   7.518   6.900   1.034
  573DIO    C1632055   7.325   6.814   1.146
  573DIO    C1732056   7.249   6.790   1.268
  573DIO    C1832057   7.318   6.809   1.396
  573DIO    C1932058   7.450   6.870   1.401
  573DIO     F632059   7.512   6.870   1.521
  573DIO    C2032060   7.109   6.736   1.264
  573DIO     O332061   7.039   6.766   1.142
  573DIO    C2132062   6.995   6.901   1.136
  573DIO    C2232063   6.906   6.935   1.255
  573DIO    C2332064   6.987   6.903   1.381
  573DIO     O432065   7.031   6.768   1.380
  573DIO    C2432066   6.773   6.856   1.257
  573DIO    C2532067   6.683   6.876   1.135
  573DIO    C2632068   6.644   7.021   1.110
  573DIO     H132069   8.365   6.834   1.344
  573DIO     H232070   8.324   7.177   1.068
  573DIO     H332071   8.147   6.973   0.982
  573DIO     H432072   7.895   6.944   0.986
  573DIO     H532073   7.896   6.961   1.423
  573DIO     H632074   7.287   6.783   1.050
  573DIO     H732075   7.275   6.772   1.488
  573DIO     H832076   7.118   6.626   1.265
  573DIO     H932077   7.082   6.968   1.133
  573DIO    H1032078   6.942   6.915   1.042
  573DIO    H1132079   6.884   7.042   1.254
  573DIO    H1232080   6.926   6.918   1.471
  573DIO    H1332081   7.073   6.971   1.390
  573DIO    H1432082   6.793   6.749   1.267
  573DIO    H1532083   6.717   6.885   1.346
  573DIO    H1632084   6.730   6.835   1.045
  573DIO    H1732085   6.591   6.818   1.150
  573DIO    H1832086   6.600   7.067   1.199
  573DIO    H1932087   6.731   7.081   1.079
  573DIO    H2032088   6.571   7.027   1.029
  574DIO     F132089   6.364   0.596   7.950
  574DIO     C132090   6.287   0.656   7.858
  574DIO     C232091   6.142   0.641   7.866
  574DIO     C332092   6.054   0.703   7.765
  574DIO     C432093   6.119   0.783   7.658
  574DIO     C532094   6.263   0.797   7.653
  574DIO     F232095   6.319   0.873   7.557
  574DIO     C632096   6.347   0.734   7.753
  574DIO     F332097   6.481   0.747   7.746
  574DIO     C732098   5.907   0.688   7.770
  574DIO     C832099   5.830   0.646   7.651
  574DIO     C932100   5.685   0.631   7.656
  574DIO    C1032101   5.613   0.668   7.776
  574DIO    C1132102   5.685   0.703   7.897
  574DIO    C1232103   5.829   0.715   7.893
  574DIO     F432104   5.894   0.753   8.005
  574DIO     O132105   5.481   0.630   7.782
  574DIO    C1332106   5.386   0.709   7.847
  574DIO     O232107   5.385   0.830   7.882
  574DIO    C1432108   5.257   0.641   7.863
  574DIO    C1532109   5.191   0.572   7.749
  574DIO     F532110   5.253   0.563   7.630
  574DIO    C1632111   5.060   0.510   7.761
  574DIO    C1732112   4.984   0.520   7.885
  574DIO    C1832113   5.053   0.572   8.003
  574DIO    C1932114   5.185   0.632   7.991
  574DIO     F632115   5.247   0.665   8.107
  574DIO    C2032116   4.843   0.466   7.895
  574DIO     O332117   4.774   0.463   7.770
  574DIO    C2132118   4.730   0.591   7.728
  574DIO    C2232119   4.641   0.656   7.834
  574DIO    C2332120   4.722   0.659   7.963
  574DIO     O432121   4.766   0.529   7.999
  574DIO    C2432122   4.508   0.581   7.856
  574DIO    C2532123   4.418   0.567   7.733
  574DIO    C2632124   4.379   0.700   7.670
  574DIO     H132125   6.100   0.583   7.947
  574DIO     H232126   6.059   0.839   7.588
  574DIO     H332127   5.882   0.619   7.560
  574DIO     H432128   5.630   0.592   7.572
  574DIO     H532129   5.631   0.726   7.988
  574DIO     H632130   5.022   0.454   7.676
  574DIO     H732131   5.010   0.561   8.102
  574DIO     H832132   4.853   0.361   7.926
  574DIO     H932133   4.817   0.655   7.707
  574DIO    H1032134   4.677   0.579   7.633
  574DIO    H1132135   4.619   0.759   7.804
  574DIO    H1232136   4.661   0.697   8.046
  574DIO    H1332137   4.808   0.727   7.954
  574DIO    H1432138   4.528   0.480   7.895
  574DIO    H1532139   4.452   0.632   7.935
  574DIO    H1632140   4.465   0.503   7.658
  574DIO    H1732141   4.326   0.515   7.764
  574DIO    H1832142   4.335   0.767   7.744
  574DIO    H1932143   4.466   0.749   7.625
  574DIO    H2032144   4.306   0.684   7.591
  575DIO     F132145   7.606   9.326   6.301
  575DIO     C132146   7.528   9.352   6.193
  575DIO     C232147   7.384   9.340   6.206
  575DIO     C332148   7.295   9.365   6.090
  575DIO     C432149   7.361   9.404   5.963
  575DIO     C532150   7.505   9.415   5.953
  575DIO     F232151   7.560   9.455   5.837
  575DIO     C632152   7.589   9.389   6.068
  575DIO     F332153   7.722   9.399   6.058
  575DIO     C732154   7.149   9.352   6.100
  575DIO     C832155   7.072   9.272   6.002
  575DIO     C932156   6.927   9.260   6.012
  575DIO    C1032157   6.854   9.335   6.112
  575DIO    C1132158   6.927   9.409   6.214
  575DIO    C1232159   7.071   9.419   6.206
  575DIO     F432160   7.136   9.492   6.299
  575DIO     O132161   6.722   9.301   6.131
  575DIO    C1332162   6.628   9.397   6.166
  575DIO     O232163   6.627   9.523   6.158
  575DIO    C1432164   6.499   9.338   6.203
  575DIO    C1532165   6.432   9.236   6.119
  575DIO     F532166   6.495   9.187   6.010
  575DIO    C1632167   6.301   9.182   6.151
  575DIO    C1732168   6.226   9.232   6.265
  575DIO    C1832169   6.294   9.321   6.358
  575DIO    C1932170   6.426   9.374   6.327
  575DIO     F632171   6.489   9.443   6.425
  575DIO    C2032172   6.085   9.185   6.293
  575DIO     O332173   6.015   9.140   6.176
  575DIO    C2132174   5.972   9.247   6.093
  575DIO    C2232175   5.883   9.343   6.171
  575DIO    C2332176   5.963   9.390   6.292
  575DIO     O432177   6.008   9.279   6.369
  575DIO    C2432178   5.750   9.280   6.217
  575DIO    C2532179   5.659   9.226   6.106
  575DIO    C2632180   5.621   9.329   6.002
  575DIO     H132181   7.341   9.312   6.301
  575DIO     H232182   7.300   9.433   5.878
  575DIO     H332183   7.123   9.217   5.925
  575DIO     H432184   6.872   9.195   5.946
  575DIO     H532185   6.872   9.461   6.292
  575DIO     H632186   6.263   9.100   6.090
  575DIO     H732187   6.252   9.344   6.455
  575DIO     H832188   6.095   9.097   6.357
  575DIO     H932189   6.058   9.299   6.051
  575DIO    H1032190   5.919   9.204   6.008
  575DIO    H1132191   5.860   9.430   6.108
  575DIO    H1232192   5.902   9.453   6.357
  575DIO    H1332193   6.050   9.450   6.261
  575DIO    H1432194   5.770   9.198   6.287
  575DIO    H1532195   5.693   9.355   6.274
  575DIO    H1632196   5.707   9.140   6.057
  575DIO    H1732197   5.567   9.187   6.152
  575DIO    H1832198   5.577   9.418   6.049
  575DIO    H1932199   5.707   9.361   5.943
  575DIO    H2032200   5.547   9.288   5.933
  576DIO     F132201   9.197   4.438  -0.641
  576DIO     C132202   9.120   4.512  -0.723
  576DIO     C232203   8.976   4.496  -0.718
  576DIO     C332204   8.887   4.573  -0.808
  576DIO     C432205   8.952   4.669  -0.900
  576DIO     C532206   9.097   4.683  -0.903
  576DIO     F232207   9.152   4.774  -0.986
  576DIO     C632208   9.180   4.606  -0.815
  576DIO     F332209   9.314   4.619  -0.820
  576DIO     C732210   8.741   4.557  -0.805
  576DIO     C832211   8.663   4.534  -0.929
  576DIO     C932212   8.519   4.519  -0.926
  576DIO    C1032213   8.446   4.537  -0.802
  576DIO    C1132214   8.519   4.553  -0.677
  576DIO    C1232215   8.663   4.565  -0.680
  576DIO     F432216   8.728   4.585  -0.563
  576DIO     O132217   8.314   4.498  -0.802
  576DIO    C1332218   8.219   4.565  -0.726
  576DIO     O232219   8.219   4.679  -0.672
  576DIO    C1432220   8.090   4.496  -0.721
  576DIO    C1532221   8.024   4.446  -0.844
  576DIO     F532222   8.087   4.455  -0.963
  576DIO    C1632223   7.893   4.383  -0.842
  576DIO    C1732224   7.817   4.373  -0.718
  576DIO    C1832225   7.886   4.406  -0.593
  576DIO    C1932226   8.018   4.467  -0.595
  576DIO     F632227   8.080   4.481  -0.476
  576DIO    C2032228   7.677   4.318  -0.716
  576DIO     O332229   7.607   4.335  -0.840
  576DIO    C2132230   7.563   4.468  -0.862
  576DIO    C2232231   7.474   4.516  -0.747
  576DIO    C2332232   7.555   4.499  -0.618
  576DIO     O432233   7.599   4.364  -0.604
  576DIO    C2432234   7.342   4.438  -0.737
  576DIO    C2532235   7.251   4.443  -0.860
  576DIO    C2632236   7.213   4.585  -0.902
  576DIO     H132237   8.933   4.426  -0.647
  576DIO     H232238   8.892   4.735  -0.961
  576DIO     H332239   8.715   4.522  -1.023
  576DIO     H432240   8.464   4.493  -1.016
  576DIO     H532241   8.464   4.560  -0.584
  576DIO     H632242   7.855   4.341  -0.934
  576DIO     H732243   7.843   4.380  -0.497
  576DIO     H832244   7.686   4.210  -0.702
  576DIO     H932245   7.650   4.534  -0.873
  576DIO    H1032246   7.511   4.471  -0.957
  576DIO    H1132247   7.452   4.622  -0.760
  576DIO    H1232248   7.494   4.523  -0.531
  576DIO    H1332249   7.641   4.566  -0.617
  576DIO    H1432250   7.362   4.332  -0.715
  576DIO    H1532251   7.285   4.476  -0.651
  576DIO    H1632252   7.298   4.392  -0.945
  576DIO    H1732253   7.159   4.387  -0.838
  576DIO    H1832254   7.169   4.640  -0.818
  576DIO    H1932255   7.299   4.640  -0.939
  576DIO    H2032256   7.139   4.581  -0.983
  577DIO     F132257   1.150   9.237   9.960
  577DIO     C132258   1.072   9.327  10.022
  577DIO     C232259   0.928   9.320  10.007
  577DIO     C332260   0.839   9.419  10.071
  577DIO     C432261   0.905   9.524  10.154
  577DIO     C532262   1.049   9.528  10.168
  577DIO     F232263   1.104   9.622  10.247
  577DIO     C632264   1.133   9.431  10.103
  577DIO     F332265   1.266   9.437  10.115
  577DIO     C732266   0.693   9.414  10.056
  577DIO     C832267   0.616   9.534  10.017
  577DIO     C932268   0.471   9.530  10.002
  577DIO    C1032269   0.398   9.409  10.036
  577DIO    C1132270   0.471   9.287  10.068
  577DIO    C1232271   0.615   9.291  10.080
  577DIO     F432272   0.680   9.178  10.115
  577DIO     O132273   0.266   9.404   9.997
  577DIO    C1332274   0.172   9.337  10.075
  577DIO     O232275   0.171   9.299  10.194
  577DIO    C1432276   0.042   9.323  10.006
  577DIO    C1532277  -0.024   9.438   9.941
  577DIO     F532278   0.039   9.558   9.934
  577DIO    C1632279  -0.155   9.428   9.879
  577DIO    C1732280  -0.230   9.304   9.885
  577DIO    C1832281  -0.162   9.185   9.934
  577DIO    C1932282  -0.030   9.195   9.994
  577DIO     F632283   0.032   9.079  10.024
  577DIO    C2032284  -0.371   9.295   9.831
  577DIO     O332285  -0.441   9.420   9.831
  577DIO    C2132286  -0.485   9.459   9.960
  577DIO    C2232287  -0.573   9.352  10.023
  577DIO    C2332288  -0.493   9.222  10.022
  577DIO     O432289  -0.448   9.190   9.891
  577DIO    C2432290  -0.706   9.331   9.946
  577DIO    C2532291  -0.797   9.454   9.936
  577DIO    C2632292  -0.835   9.514  10.070
  577DIO     H132293   0.885   9.241   9.946
  577DIO     H232294   0.844   9.593  10.212
  577DIO     H332295   0.667   9.627   9.993
  577DIO     H432296   0.416   9.615   9.965
  577DIO     H532297   0.416   9.196  10.088
  577DIO     H632298  -0.193   9.514   9.825
  577DIO     H732299  -0.205   9.086   9.920
  577DIO     H832300  -0.361   9.267   9.725
  577DIO     H932301  -0.398   9.479  10.024
  577DIO    H1032302  -0.537   9.554   9.951
  577DIO    H1132303  -0.596   9.379  10.126
  577DIO    H1232304  -0.554   9.138  10.058
  577DIO    H1332305  -0.407   9.229  10.090
  577DIO    H1432306  -0.686   9.296   9.844
  577DIO    H1532307  -0.763   9.251   9.996
  577DIO    H1632308  -0.750   9.531   9.874
  577DIO    H1732309  -0.889   9.425   9.883
  577DIO    H1832310  -0.879   9.438  10.136
  577DIO    H1932311  -0.749   9.558  10.121
  577DIO    H2032312  -0.909   9.594  10.056
  578DIO     F132313   9.722   8.819   3.491
  578DIO     C132314   9.644   8.826   3.381
  578DIO     C232315   9.500   8.817   3.395
  578DIO     C332316   9.411   8.823   3.277
  578DIO     C432317   9.477   8.841   3.145
  578DIO     C532318   9.621   8.850   3.134
  578DIO     F232319   9.676   8.871   3.013
  578DIO     C632320   9.705   8.844   3.251
  578DIO     F332321   9.838   8.851   3.239
  578DIO     C732322   9.265   8.812   3.289
  578DIO     C832323   9.188   8.717   3.205
  578DIO     C932324   9.043   8.707   3.217
  578DIO    C1032325   8.970   8.797   3.304
  578DIO    C1132326   9.043   8.887   3.392
  578DIO    C1232327   9.187   8.895   3.383
  578DIO     F432328   9.252   8.982   3.463
  578DIO     O132329   8.838   8.766   3.327
  578DIO    C1332330   8.744   8.867   3.346
  578DIO     O232331   8.743   8.990   3.318
  578DIO    C1432332   8.614   8.815   3.393
  578DIO    C1532333   8.548   8.700   3.327
  578DIO     F532334   8.611   8.634   3.227
  578DIO    C1632335   8.417   8.652   3.367
  578DIO    C1732336   8.342   8.720   3.471
  578DIO    C1832337   8.410   8.823   3.549
  578DIO    C1932338   8.542   8.870   3.509
  578DIO     F632339   8.604   8.954   3.595
  578DIO    C2032340   8.201   8.678   3.506
  578DIO     O332341   8.131   8.615   3.398
  578DIO    C2132342   8.087   8.707   3.299
  578DIO    C2232343   7.999   8.815   3.360
  578DIO    C2332344   8.079   8.880   3.472
  578DIO     O432345   8.124   8.783   3.566
  578DIO    C2432346   7.866   8.759   3.416
  578DIO    C2532347   7.775   8.688   3.315
  578DIO    C2632348   7.737   8.774   3.196
  578DIO     H132349   9.457   8.805   3.494
  578DIO     H232350   9.416   8.856   3.056
  578DIO     H332351   9.239   8.650   3.138
  578DIO     H432352   8.988   8.632   3.162
  578DIO     H532353   8.988   8.950   3.461
  578DIO     H632354   8.379   8.562   3.320
  578DIO     H732355   8.367   8.861   3.640
  578DIO     H832356   8.211   8.601   3.583
  578DIO     H932357   8.174   8.752   3.249
  578DIO    H1032358   8.035   8.650   3.222
  578DIO    H1132359   7.976   8.890   3.284
  578DIO    H1232360   8.018   8.953   3.526
  578DIO    H1332361   8.165   8.935   3.431
  578DIO    H1432362   7.886   8.690   3.499
  578DIO    H1532363   7.809   8.843   3.460
  578DIO    H1632364   7.822   8.596   3.280
  578DIO    H1732365   7.683   8.657   3.367
  578DIO    H1832366   7.693   8.869   3.228
  578DIO    H1932367   7.823   8.795   3.132
  578DIO    H2032368   7.663   8.721   3.134
  579DIO     F132369   9.067   7.081  -0.528
  579DIO     C132370   8.990   7.187  -0.556
  579DIO     C232371   8.845   7.171  -0.560
  579DIO     C332372   8.757   7.285  -0.592
  579DIO     C432373   8.822   7.415  -0.617
  579DIO     C532374   8.966   7.429  -0.612
  579DIO     F232375   9.022   7.550  -0.631
  579DIO     C632376   9.050   7.316  -0.581
  579DIO     F332377   9.184   7.329  -0.577
  579DIO     C732378   8.610   7.270  -0.599
  579DIO     C832379   8.533   7.319  -0.715
  579DIO     C932380   8.388   7.305  -0.721
  579DIO    C1032381   8.316   7.251  -0.608
  579DIO    C1132382   8.388   7.195  -0.495
  579DIO    C1232383   8.532   7.207  -0.490
  579DIO     F432384   8.597   7.159  -0.382
  579DIO     O132385   8.184   7.219  -0.630
  579DIO    C1332386   8.089   7.233  -0.528
  579DIO     O232387   8.088   7.298  -0.421
  579DIO    C1432388   7.960   7.172  -0.563
  579DIO    C1532389   7.894   7.199  -0.692
  579DIO     F532390   7.956   7.272  -0.787
  579DIO    C1632391   7.763   7.145  -0.726
  579DIO    C1732392   7.687   7.068  -0.627
  579DIO    C1832393   7.756   7.027  -0.506
  579DIO    C1932394   7.888   7.079  -0.473
  579DIO     F632395   7.950   7.025  -0.366
  579DIO    C2032396   7.546   7.022  -0.656
  579DIO     O332397   7.477   7.103  -0.751
  579DIO    C2132398   7.433   7.227  -0.695
  579DIO    C2232399   7.344   7.203  -0.573
  579DIO    C2332400   7.425   7.118  -0.476
  579DIO     O432401   7.469   6.998  -0.538
  579DIO    C2432402   7.211   7.132  -0.608
  579DIO    C2532403   7.121   7.205  -0.708
  579DIO    C2632404   7.082   7.346  -0.665
  579DIO     H132405   8.803   7.073  -0.540
  579DIO     H232406   8.762   7.504  -0.631
  579DIO     H332407   8.585   7.361  -0.800
  579DIO     H432408   8.333   7.333  -0.810
  579DIO     H532409   8.334   7.151  -0.413
  579DIO     H632410   7.725   7.161  -0.826
  579DIO     H732411   7.713   6.952  -0.440
  579DIO     H832412   7.556   6.924  -0.705
  579DIO     H932413   7.520   7.288  -0.668
  579DIO    H1032414   7.380   7.282  -0.773
  579DIO    H1132415   7.322   7.299  -0.526
  579DIO    H1232416   7.364   7.090  -0.389
  579DIO    H1332417   7.511   7.174  -0.437
  579DIO    H1432418   7.231   7.032  -0.648
  579DIO    H1532419   7.155   7.118  -0.515
  579DIO    H1632420   7.168   7.209  -0.807
  579DIO    H1732421   7.029   7.146  -0.720
  579DIO    H1832422   7.038   7.346  -0.564
  579DIO    H1932423   7.169   7.413  -0.665
  579DIO    H2032424   7.009   7.388  -0.734
  580DIO     F132425   6.663   9.284   1.735
  580DIO     C132426   6.585   9.190   1.792
  580DIO     C232427   6.441   9.207   1.792
  580DIO     C332428   6.352   9.107   1.855
  580DIO     C432429   6.418   8.989   1.915
  580DIO     C532430   6.562   8.974   1.914
  580DIO     F232431   6.618   8.863   1.967
  580DIO     C632432   6.646   9.074   1.852
  580DIO     F332433   6.780   9.060   1.853
  580DIO     C732434   6.206   9.123   1.857
  580DIO     C832435   6.129   9.109   1.982
  580DIO     C932436   5.984   9.124   1.984
  580DIO    C1032437   5.912   9.143   1.860
  580DIO    C1132438   5.984   9.165   1.736
  580DIO    C1232439   6.128   9.152   1.735
  580DIO     F432440   6.193   9.167   1.617
  580DIO     O132441   5.779   9.181   1.872
  580DIO    C1332442   5.685   9.138   1.779
  580DIO     O232443   5.684   9.045   1.694
  580DIO    C1432444   5.556   9.206   1.794
  580DIO    C1532445   5.490   9.218   1.926
  580DIO     F532446   5.552   9.174   2.038
  580DIO    C1632447   5.359   9.279   1.943
  580DIO    C1732448   5.283   9.324   1.827
  580DIO    C1832449   5.352   9.330   1.699
  580DIO    C1932450   5.483   9.270   1.682
  580DIO     F632451   5.546   9.291   1.565
  580DIO    C2032452   5.142   9.377   1.841
  580DIO     O332453   5.073   9.326   1.955
  580DIO    C2132454   5.029   9.192   1.937
  580DIO    C2232455   4.940   9.179   1.814
  580DIO    C2332456   5.021   9.234   1.696
  580DIO     O432457   5.065   9.367   1.721
  580DIO    C2432458   4.807   9.257   1.827
  580DIO    C2532459   4.717   9.216   1.943
  580DIO    C2632460   4.678   9.069   1.941
  580DIO     H132461   6.399   9.295   1.744
  580DIO     H232462   6.357   8.907   1.954
  580DIO     H332463   6.180   9.092   2.076
  580DIO     H432464   5.929   9.122   2.077
  580DIO     H532465   5.930   9.185   1.645
  580DIO     H632466   5.321   9.292   2.043
  580DIO     H732467   5.309   9.382   1.614
  580DIO     H832468   5.152   9.485   1.860
  580DIO     H932469   5.116   9.125   1.928
  580DIO    H1032470   4.976   9.161   2.028
  580DIO    H1132471   4.917   9.074   1.795
  580DIO    H1232472   4.960   9.236   1.605
  580DIO    H1332473   5.107   9.169   1.674
  580DIO    H1432474   4.827   9.365   1.836
  580DIO    H1532475   4.751   9.245   1.733
  580DIO    H1632476   4.764   9.240   2.039
  580DIO    H1732477   4.625   9.276   1.938
  580DIO    H1832478   4.634   9.040   1.845
  580DIO    H1932479   4.765   9.004   1.960
  580DIO    H2032480   4.604   9.048   2.020
  581DIO     F132481   9.414  -0.102   9.194
  581DIO     C132482   9.337  -0.192   9.131
  581DIO     C232483   9.193  -0.185   9.146
  581DIO     C332484   9.104  -0.283   9.080
  581DIO     C432485   9.169  -0.386   8.996
  581DIO     C532486   9.314  -0.391   8.982
  581DIO     F232487   9.369  -0.484   8.902
  581DIO     C632488   9.397  -0.294   9.049
  581DIO     F332489   9.531  -0.300   9.036
  581DIO     C732490   8.957  -0.278   9.095
  581DIO     C832491   8.880  -0.399   9.133
  581DIO     C932492   8.736  -0.394   9.148
  581DIO    C1032493   8.663  -0.273   9.115
  581DIO    C1132494   8.735  -0.151   9.085
  581DIO    C1232495   8.880  -0.155   9.073
  581DIO     F432496   8.944  -0.041   9.040
  581DIO     O132497   8.531  -0.269   9.154
  581DIO    C1332498   8.436  -0.201   9.078
  581DIO     O232499   8.435  -0.161   8.958
  581DIO    C1432500   8.307  -0.188   9.146
  581DIO    C1532501   8.241  -0.304   9.210
  581DIO     F532502   8.303  -0.423   9.215
  581DIO    C1632503   8.110  -0.294   9.272
  581DIO    C1732504   8.034  -0.170   9.268
  581DIO    C1832505   8.103  -0.050   9.221
  581DIO    C1932506   8.235  -0.059   9.160
  581DIO     F632507   8.297   0.057   9.132
  581DIO    C2032508   7.894  -0.162   9.322
  581DIO     O332509   7.824  -0.287   9.321
  581DIO    C2132510   7.780  -0.324   9.190
  581DIO    C2232511   7.691  -0.216   9.130
  581DIO    C2332512   7.772  -0.086   9.132
  581DIO     O432513   7.816  -0.056   9.264
  581DIO    C2432514   7.558  -0.197   9.206
  581DIO    C2532515   7.468  -0.320   9.215
  581DIO    C2632516   7.429  -0.378   9.080
  581DIO     H132517   9.150  -0.106   9.207
  581DIO     H232518   9.109  -0.454   8.937
  581DIO     H332519   8.932  -0.491   9.156
  581DIO     H432520   8.680  -0.480   9.184
  581DIO     H532521   8.681  -0.059   9.066
  581DIO     H632522   8.072  -0.381   9.325
  581DIO     H732523   8.060   0.048   9.235
  581DIO     H832524   7.903  -0.135   9.428
  581DIO     H932525   7.867  -0.343   9.126
  581DIO    H1032526   7.727  -0.419   9.199
  581DIO    H1132527   7.669  -0.241   9.026
  581DIO    H1232528   7.711  -0.002   9.097
  581DIO    H1332529   7.858  -0.093   9.064
  581DIO    H1432530   7.578  -0.162   9.309
  581DIO    H1532531   7.502  -0.116   9.157
  581DIO    H1632532   7.515  -0.398   9.276
  581DIO    H1732533   7.376  -0.291   9.268
  581DIO    H1832534   7.385  -0.301   9.015
  581DIO    H1932535   7.516  -0.421   9.029
  581DIO    H2032536   7.356  -0.457   9.093
  582DIO     F132537   1.969   7.026   1.038
  582DIO     C132538   1.891   7.093   1.125
  582DIO     C232539   1.747   7.091   1.108
  582DIO     C332540   1.659   7.166   1.200
  582DIO     C432541   1.724   7.240   1.311
  582DIO     C532542   1.868   7.240   1.325
  582DIO     F232543   1.924   7.305   1.430
  582DIO     C632544   1.952   7.167   1.234
  582DIO     F332545   2.086   7.169   1.248
  582DIO     C732546   1.512   7.166   1.184
  582DIO     C832547   1.435   7.292   1.183
  582DIO     C932548   1.290   7.292   1.168
  582DIO    C1032549   1.218   7.166   1.164
  582DIO    C1132550   1.290   7.041   1.157
  582DIO    C1232551   1.434   7.041   1.169
  582DIO     F432552   1.499   6.923   1.168
  582DIO     O132553   1.086   7.174   1.125
  582DIO    C1332554   0.991   7.086   1.178
  582DIO     O232555   0.990   7.013   1.281
  582DIO    C1432556   0.862   7.094   1.109
  582DIO    C1532557   0.796   7.224   1.082
  582DIO     F532558   0.858   7.339   1.112
  582DIO    C1632559   0.665   7.233   1.020
  582DIO    C1732560   0.589   7.113   0.988
  582DIO    C1832561   0.658   6.984   0.998
  582DIO    C1932562   0.789   6.975   1.058
  582DIO     F632563   0.852   6.856   1.051
  582DIO    C2032564   0.448   7.121   0.933
  582DIO     O332565   0.379   7.240   0.971
  582DIO    C2132566   0.335   7.237   1.107
  582DIO    C2232567   0.246   7.116   1.133
  582DIO    C2332568   0.327   6.993   1.093
  582DIO     O432569   0.371   7.003   0.958
  582DIO    C2432570   0.113   7.120   1.054
  582DIO    C2532571   0.023   7.240   1.082
  582DIO    C2632572  -0.016   7.256   1.228
  582DIO     H132573   1.705   7.034   1.027
  582DIO     H232574   1.663   7.288   1.387
  582DIO     H332575   1.487   7.387   1.189
  582DIO     H432576   1.235   7.385   1.159
  582DIO     H532577   1.236   6.948   1.148
  582DIO     H632578   0.627   7.331   0.995
  582DIO     H732579   0.615   6.895   0.955
  582DIO     H832580   0.458   7.127   0.824
  582DIO     H932581   0.422   7.237   1.174
  582DIO    H1032582   0.282   7.331   1.127
  582DIO    H1132583   0.224   7.110   1.240
  582DIO    H1232584   0.266   6.902   1.102
  582DIO    H1332585   0.413   6.979   1.160
  582DIO    H1432586   0.133   7.117   0.946
  582DIO    H1532587   0.057   7.029   1.077
  582DIO    H1632588   0.070   7.333   1.047
  582DIO    H1732589  -0.069   7.229   1.023
  582DIO    H1832590  -0.060   7.164   1.268
  582DIO    H1932591   0.071   7.282   1.290
  582DIO    H2032592  -0.089   7.336   1.239
  583DIO     F132593   9.203   5.443   6.342
  583DIO     C132594   9.125   5.341   6.382
  583DIO     C232595   8.981   5.357   6.385
  583DIO     C332596   8.892   5.248   6.430
  583DIO     C432597   8.958   5.121   6.470
  583DIO     C532598   9.102   5.107   6.467
  583DIO     F232599   9.157   4.989   6.500
  583DIO     C632600   9.186   5.216   6.422
  583DIO     F332601   9.319   5.202   6.421
  583DIO     C732602   8.746   5.263   6.435
  583DIO     C832603   8.669   5.229   6.557
  583DIO     C932604   8.524   5.243   6.561
  583DIO    C1032605   8.451   5.283   6.442
  583DIO    C1132606   8.524   5.325   6.323
  583DIO    C1232607   8.668   5.313   6.320
  583DIO     F432608   8.733   5.347   6.207
  583DIO     O132609   8.319   5.318   6.459
  583DIO    C1332610   8.225   5.292   6.361
  583DIO     O232611   8.224   5.214   6.262
  583DIO    C1432612   8.095   5.356   6.388
  583DIO    C1532613   8.029   5.346   6.519
  583DIO     F532614   8.092   5.284   6.622
  583DIO    C1632615   7.898   5.403   6.546
  583DIO    C1732616   7.823   5.467   6.440
  583DIO    C1832617   7.891   5.494   6.314
  583DIO    C1932618   8.023   5.438   6.288
  583DIO     F632619   8.085   5.479   6.175
  583DIO    C2032620   7.682   5.517   6.463
  583DIO     O332621   7.612   5.447   6.566
  583DIO    C2132622   7.568   5.318   6.526
  583DIO    C2232623   7.480   5.327   6.402
  583DIO    C2332624   7.560   5.400   6.295
  583DIO     O432625   7.605   5.526   6.342
  583DIO    C2432626   7.347   5.401   6.428
  583DIO    C2532627   7.256   5.341   6.536
  583DIO    C2632628   7.218   5.196   6.509
  583DIO     H132629   8.938   5.452   6.353
  583DIO     H232630   8.897   5.035   6.495
  583DIO     H332631   8.720   5.197   6.646
  583DIO     H432632   8.469   5.226   6.652
  583DIO     H532633   8.469   5.360   6.236
  583DIO     H632634   7.860   5.399   6.647
  583DIO     H732635   7.848   5.560   6.240
  583DIO     H832636   7.692   5.620   6.499
  583DIO     H932637   7.655   5.254   6.506
  583DIO    H1032638   7.516   5.272   6.610
  583DIO    H1132639   7.457   5.226   6.366
  583DIO    H1232640   7.499   5.417   6.206
  583DIO    H1332641   7.646   5.340   6.263
  583DIO    H1432642   7.367   5.506   6.455
  583DIO    H1532643   7.290   5.405   6.334
  583DIO    H1632644   7.303   5.349   6.634
  583DIO    H1732645   7.164   5.401   6.541
  583DIO    H1832646   7.174   5.184   6.410
  583DIO    H1932647   7.304   5.129   6.517
  583DIO    H2032648   7.144   5.163   6.583
  584DIO     F132649   7.104   6.225   9.364
  584DIO     C132650   7.026   6.255   9.470
  584DIO     C232651   6.882   6.259   9.454
  584DIO     C332652   6.793   6.294   9.567
  584DIO     C432653   6.859   6.321   9.697
  584DIO     C532654   7.003   6.316   9.711
  584DIO     F232655   7.058   6.337   9.832
  584DIO     C632656   7.087   6.282   9.598
  584DIO     F332657   7.220   6.279   9.612
  584DIO     C732658   6.647   6.300   9.552
  584DIO     C832659   6.570   6.417   9.599
  584DIO     C932660   6.425   6.423   9.585
  584DIO    C1032661   6.352   6.308   9.534
  584DIO    C1132662   6.425   6.194   9.480
  584DIO    C1232663   6.569   6.190   9.492
  584DIO     F432664   6.634   6.081   9.446
  584DIO     O132665   6.220   6.329   9.501
  584DIO    C1332666   6.126   6.228   9.517
  584DIO     O232667   6.125   6.122   9.584
  584DIO    C1432668   5.996   6.262   9.456
  584DIO    C1532669   5.930   6.392   9.479
  584DIO     F532670   5.993   6.488   9.551
  584DIO    C1632671   5.799   6.424   9.425
  584DIO    C1732672   5.724   6.325   9.350
  584DIO    C1832673   5.792   6.202   9.311
  584DIO    C1932674   5.924   6.171   9.364
  584DIO     F632675   5.986   6.063   9.312
  584DIO    C2032676   5.583   6.352   9.303
  584DIO     O332677   5.513   6.449   9.383
  584DIO    C2132678   5.469   6.395   9.508
  584DIO    C2232679   5.381   6.273   9.486
  584DIO    C2332680   5.461   6.174   9.403
  584DIO     O432681   5.506   6.234   9.282
  584DIO    C2432682   5.248   6.306   9.415
  584DIO    C2532683   5.157   6.407   9.486
  584DIO    C2632684   5.119   6.367   9.627
  584DIO     H132685   6.839   6.237   9.357
  584DIO     H232686   6.798   6.337   9.786
  584DIO     H332687   6.621   6.503   9.640
  584DIO     H432688   6.370   6.512   9.611
  584DIO     H532689   6.370   6.112   9.437
  584DIO     H632690   5.761   6.525   9.439
  584DIO     H732691   5.749   6.135   9.238
  584DIO     H832692   5.593   6.399   9.204
  584DIO     H932693   5.556   6.369   9.569
  584DIO    H1032694   5.417   6.474   9.561
  584DIO    H1132695   5.358   6.227   9.583
  584DIO    H1232696   5.400   6.087   9.377
  584DIO    H1332697   5.547   6.136   9.459
  584DIO    H1432698   5.268   6.344   9.314
  584DIO    H1532699   5.191   6.213   9.402
  584DIO    H1632700   5.204   6.506   9.488
  584DIO    H1732701   5.065   6.419   9.427
  584DIO    H1832702   5.075   6.267   9.629
  584DIO    H1932703   5.205   6.368   9.694
  584DIO    H2032704   5.045   6.437   9.668
  585DIO     F132705  10.321  -0.333   3.042
  585DIO     C132706  10.243  -0.224   3.027
  585DIO     C232707  10.099  -0.239   3.020
  585DIO     C332708  10.010  -0.123   3.001
  585DIO     C432709  10.076   0.010   2.991
  585DIO     C532710  10.220   0.023   2.998
  585DIO     F232711  10.275   0.146   2.992
  585DIO     C632712  10.304  -0.093   3.016
  585DIO     F332713  10.437  -0.080   3.021
  585DIO     C732714   9.864  -0.136   2.993
  585DIO     C832715   9.787  -0.075   2.883
  585DIO     C932716   9.642  -0.088   2.875
  585DIO    C1032717   9.569  -0.154   2.982
  585DIO    C1132718   9.642  -0.222   3.088
  585DIO    C1232719   9.786  -0.211   3.094
  585DIO     F432720   9.851  -0.270   3.196
  585DIO     O132721   9.437  -0.184   2.957
  585DIO    C1332722   9.343  -0.181   3.059
  585DIO     O232723   9.342  -0.128   3.173
  585DIO    C1432724   9.213  -0.237   3.018
  585DIO    C1532725   9.147  -0.197   2.892
  585DIO     F532726   9.210  -0.114   2.806
  585DIO    C1632727   9.016  -0.246   2.853
  585DIO    C1732728   8.941  -0.334   2.942
  585DIO    C1832729   9.009  -0.388   3.059
  585DIO    C1932730   9.141  -0.340   3.096
  585DIO     F632731   9.203  -0.405   3.197
  585DIO    C2032732   8.800  -0.377   2.908
  585DIO     O332733   8.730  -0.285   2.823
  585DIO    C2132734   8.686  -0.169   2.892
  585DIO    C2232735   8.598  -0.205   3.011
  585DIO    C2332736   8.678  -0.301   3.098
  585DIO     O432737   8.723  -0.414   3.023
  585DIO    C2432738   8.465  -0.272   2.968
  585DIO    C2532739   8.374  -0.189   2.877
  585DIO    C2632740   8.336  -0.054   2.936
  585DIO     H132741  10.056  -0.339   3.030
  585DIO     H232742  10.015   0.100   2.987
  585DIO     H332743   9.838  -0.023   2.803
  585DIO     H432744   9.587  -0.051   2.790
  585DIO     H532745   9.587  -0.276   3.165
  585DIO     H632746   8.978  -0.220   2.755
  585DIO     H732747   8.966  -0.470   3.116
  585DIO     H832748   8.810  -0.469   2.849
  585DIO     H932749   8.773  -0.111   2.926
  585DIO    H1032750   8.634  -0.105   2.821
  585DIO    H1132751   8.575  -0.115   3.069
  585DIO    H1232752   8.617  -0.338   3.181
  585DIO    H1332753   8.764  -0.250   3.143
  585DIO    H1432754   8.485  -0.367   2.918
  585DIO    H1532755   8.408  -0.297   3.059
  585DIO    H1632756   8.421  -0.174   2.780
  585DIO    H1732757   8.282  -0.246   2.859
  585DIO    H1832758   8.292  -0.065   3.036
  585DIO    H1932759   8.422   0.013   2.943
  585DIO    H2032760   8.262  -0.005   2.872
  586DIO     F132761   4.615   5.374   9.374
  586DIO     C132762   4.537   5.267   9.347
  586DIO     C232763   4.393   5.279   9.359
  586DIO     C332764   4.304   5.164   9.331
  586DIO     C432765   4.370   5.038   9.289
  586DIO     C532766   4.514   5.028   9.278
  586DIO     F232767   4.569   4.913   9.236
  586DIO     C632768   4.598   5.143   9.306
  586DIO     F332769   4.731   5.132   9.296
  586DIO     C732770   4.158   5.174   9.344
  586DIO     C832771   4.081   5.074   9.422
  586DIO     C932772   3.936   5.084   9.434
  586DIO    C1032773   3.863   5.186   9.361
  586DIO    C1132774   3.936   5.289   9.289
  586DIO    C1232775   4.080   5.281   9.280
  586DIO     F432776   4.145   5.376   9.208
  586DIO     O132777   3.731   5.204   9.396
  586DIO    C1332778   3.637   5.240   9.300
  586DIO     O232779   3.636   5.235   9.175
  586DIO    C1432780   3.507   5.276   9.360
  586DIO    C1532781   3.441   5.191   9.461
  586DIO     F532782   3.504   5.081   9.507
  586DIO    C1632783   3.310   5.221   9.516
  586DIO    C1732784   3.235   5.336   9.467
  586DIO    C1832785   3.303   5.431   9.381
  586DIO    C1932786   3.435   5.401   9.327
  586DIO     F632787   3.497   5.500   9.260
  586DIO    C2032788   3.094   5.363   9.515
  586DIO     O332789   3.024   5.245   9.558
  586DIO    C2132790   2.980   5.165   9.449
  586DIO    C2232791   2.892   5.244   9.354
  586DIO    C2332792   2.972   5.366   9.310
  586DIO     O432793   3.017   5.441   9.423
  586DIO    C2432794   2.759   5.289   9.419
  586DIO    C2532795   2.668   5.177   9.471
  586DIO    C2632796   2.630   5.075   9.365
  586DIO     H132797   4.350   5.374   9.388
  586DIO     H232798   4.309   4.953   9.259
  586DIO     H332799   4.132   4.996   9.476
  586DIO     H432800   3.881   5.016   9.498
  586DIO     H532801   3.881   5.368   9.239
  586DIO     H632802   3.272   5.159   9.596
  586DIO     H732803   3.260   5.528   9.360
  586DIO     H832804   3.104   5.425   9.605
  586DIO     H932805   3.067   5.124   9.396
  586DIO    H1032806   2.928   5.078   9.491
  586DIO    H1132807   2.869   5.183   9.266
  586DIO    H1232808   2.911   5.433   9.248
  586DIO    H1332809   3.058   5.336   9.249
  586DIO    H1432810   2.779   5.358   9.502
  586DIO    H1532811   2.702   5.347   9.345
  586DIO    H1632812   2.715   5.126   9.555
  586DIO    H1732813   2.576   5.223   9.510
  586DIO    H1832814   2.586   5.124   9.277
  586DIO    H1932815   2.716   5.017   9.332
  586DIO    H2032816   2.556   5.005   9.405
  587DIO     F132817   1.253   9.476   4.771
  587DIO     C132818   1.176   9.466   4.661
  587DIO     C232819   1.032   9.459   4.677
  587DIO     C332820   0.943   9.446   4.559
  587DIO     C432821   1.008   9.443   4.426
  587DIO     C532822   1.153   9.450   4.413
  587DIO     F232823   1.208   9.451   4.291
  587DIO     C632824   1.236   9.462   4.530
  587DIO     F332825   1.370   9.468   4.517
  587DIO     C732826   0.796   9.437   4.572
  587DIO     C832827   0.719   9.330   4.505
  587DIO     C932828   0.575   9.322   4.518
  587DIO    C1032829   0.502   9.425   4.589
  587DIO    C1132830   0.574   9.528   4.663
  587DIO    C1232831   0.719   9.534   4.652
  587DIO     F432832   0.783   9.633   4.717
  587DIO     O132833   0.370   9.398   4.618
  587DIO    C1332834   0.275   9.501   4.620
  587DIO     O232835   0.274   9.617   4.573
  587DIO    C1432836   0.146   9.457   4.675
  587DIO    C1532837   0.080   9.333   4.628
  587DIO     F532838   0.142   9.252   4.540
  587DIO    C1632839  -0.051   9.292   4.675
  587DIO    C1732840  -0.127   9.376   4.767
  587DIO    C1832841  -0.058   9.489   4.827
  587DIO    C1932842   0.074   9.530   4.781
  587DIO     F632843   0.136   9.627   4.852
  587DIO    C2032844  -0.267   9.340   4.808
  587DIO     O332845  -0.337   9.260   4.712
  587DIO    C2132846  -0.381   9.335   4.599
  587DIO    C2232847  -0.470   9.451   4.642
  587DIO    C2332848  -0.389   9.534   4.742
  587DIO     O432849  -0.345   9.453   4.851
  587DIO    C2432850  -0.603   9.406   4.707
  587DIO    C2532851  -0.693   9.319   4.618
  587DIO    C2632852  -0.732   9.384   4.487
  587DIO     H132853   0.989   9.463   4.776
  587DIO     H232854   0.948   9.443   4.336
  587DIO     H332855   0.771   9.253   4.450
  587DIO     H432856   0.519   9.239   4.476
  587DIO     H532857   0.520   9.601   4.720
  587DIO     H632858  -0.089   9.195   4.643
  587DIO     H732859  -0.101   9.542   4.912
  587DIO     H832860  -0.258   9.276   4.897
  587DIO     H932861  -0.294   9.372   4.543
  587DIO    H1032862  -0.434   9.267   4.532
  587DIO    H1132863  -0.492   9.514   4.555
  587DIO    H1232864  -0.450   9.615   4.784
  587DIO    H1332865  -0.303   9.581   4.694
  587DIO    H1432866  -0.583   9.350   4.799
  587DIO    H1532867  -0.659   9.495   4.736
  587DIO    H1632868  -0.646   9.222   4.599
  587DIO    H1732869  -0.785   9.297   4.675
  587DIO    H1832870  -0.776   9.483   4.503
  587DIO    H1932871  -0.645   9.395   4.421
  587DIO    H2032872  -0.805   9.323   4.434
  588DIO     F132873   8.705   5.015  10.709
  588DIO     C132874   8.627   4.948  10.621
  588DIO     C232875   8.483   4.950  10.638
  588DIO     C332876   8.394   4.877  10.545
  588DIO     C432877   8.460   4.804  10.434
  588DIO     C532878   8.604   4.803  10.420
  588DIO     F232879   8.660   4.739  10.315
  588DIO     C632880   8.688   4.876  10.512
  588DIO     F332881   8.822   4.874  10.498
  588DIO     C732882   8.248   4.877  10.562
  588DIO     C832883   8.171   4.750  10.561
  588DIO     C932884   8.026   4.750  10.577
  588DIO    C1032885   7.954   4.876  10.582
  588DIO    C1132886   8.026   5.001  10.590
  588DIO    C1232887   8.170   5.001  10.578
  588DIO     F432888   8.235   5.119  10.580
  588DIO     O132889   7.821   4.868  10.621
  588DIO    C1332890   7.727   4.956  10.568
  588DIO     O232891   7.726   5.030  10.467
  588DIO    C1432892   7.598   4.947  10.638
  588DIO    C1532893   7.531   4.818  10.664
  588DIO     F532894   7.594   4.702  10.632
  588DIO    C1632895   7.401   4.808  10.726
  588DIO    C1732896   7.325   4.928  10.759
  588DIO    C1832897   7.394   5.056  10.750
  588DIO    C1932898   7.525   5.066  10.689
  588DIO     F632899   7.588   5.185  10.698
  588DIO    C2032900   7.184   4.919  10.813
  588DIO     O332901   7.114   4.800  10.774
  588DIO    C2132902   7.071   4.804  10.638
  588DIO    C2232903   6.982   4.926  10.613
  588DIO    C2332904   7.063   5.049  10.654
  588DIO     O432905   7.107   5.037  10.789
  588DIO    C2432906   6.849   4.921  10.692
  588DIO    C2532907   6.758   4.801  10.663
  588DIO    C2632908   6.720   4.786  10.517
  588DIO     H132909   8.441   5.007  10.720
  588DIO     H232910   8.399   4.756  10.358
  588DIO     H332911   8.222   4.655  10.555
  588DIO     H432912   7.971   4.657  10.585
  588DIO     H532913   7.972   5.094  10.600
  588DIO     H632914   7.363   4.709  10.750
  588DIO     H732915   7.351   5.145  10.793
  588DIO     H832916   7.194   4.912  10.922
  588DIO     H932917   7.157   4.806  10.572
  588DIO    H1032918   7.018   4.711  10.618
  588DIO    H1132919   6.959   4.933  10.506
  588DIO    H1232920   7.002   5.139  10.647
  588DIO    H1332921   7.149   5.063  10.588
  588DIO    H1432922   6.869   4.923  10.800
  588DIO    H1532923   6.793   5.012  10.670
  588DIO    H1632924   6.806   4.708  10.698
  588DIO    H1732925   6.667   4.812  10.722
  588DIO    H1832926   6.676   4.879  10.478
  588DIO    H1932927   6.807   4.761  10.455
  588DIO    H2032928   6.646   4.706  10.505
  589DIO     F132929   3.135   6.898   4.868
  589DIO     C132930   3.057   6.938   4.970
  589DIO     C232931   2.913   6.941   4.954
  589DIO     C332932   2.824   6.986   5.063
  589DIO     C432933   2.890   7.026   5.190
  589DIO     C532934   3.034   7.022   5.204
  589DIO     F232935   3.090   7.055   5.322
  589DIO     C632936   3.118   6.978   5.095
  589DIO     F332937   3.252   6.976   5.109
  589DIO     C732938   2.678   6.991   5.048
  589DIO     C832939   2.601   7.112   5.083
  589DIO     C932940   2.456   7.116   5.068
  589DIO    C1032941   2.384   6.997   5.028
  589DIO    C1132942   2.456   6.879   4.986
  589DIO    C1232943   2.600   6.875   4.998
  589DIO     F432944   2.665   6.763   4.963
  589DIO     O132945   2.251   7.015   4.993
  589DIO    C1332946   2.157   6.916   5.019
  589DIO     O232947   2.156   6.817   5.097
  589DIO    C1432948   2.028   6.944   4.955
  589DIO    C1532949   1.961   7.075   4.966
  589DIO     F532950   2.024   7.178   5.028
  589DIO    C1632951   1.831   7.102   4.909
  589DIO    C1732952   1.755   6.996   4.844
  589DIO    C1832953   1.824   6.870   4.817
  589DIO    C1932954   1.955   6.844   4.873
  589DIO     F632955   2.018   6.732   4.832
  589DIO    C2032956   1.614   7.019   4.794
  589DIO     O332957   1.544   7.123   4.865
  589DIO    C2132958   1.501   7.081   4.994
  589DIO    C2232959   1.412   6.958   4.985
  589DIO    C2332960   1.493   6.851   4.911
  589DIO     O432961   1.537   6.899   4.784
  589DIO    C2432962   1.279   6.984   4.910
  589DIO    C2532963   1.188   7.092   4.971
  589DIO    C2632964   1.150   7.065   5.116
  589DIO     H132965   2.871   6.909   4.859
  589DIO     H232966   2.829   7.050   5.277
  589DIO     H332967   2.652   7.201   5.115
  589DIO     H432968   2.401   7.208   5.086
  589DIO     H532969   2.402   6.792   4.951
  589DIO     H632970   1.793   7.204   4.913
  589DIO     H732971   1.781   6.796   4.751
  589DIO     H832972   1.624   7.056   4.691
  589DIO     H932973   1.587   7.062   5.058
  589DIO    H1032974   1.448   7.165   5.040
  589DIO    H1132975   1.389   6.922   5.085
  589DIO    H1232976   1.432   6.762   4.893
  589DIO    H1332977   1.579   6.819   4.971
  589DIO    H1432978   1.299   7.012   4.806
  589DIO    H1532979   1.223   6.890   4.906
  589DIO    H1632980   1.236   7.190   4.963
  589DIO    H1732981   1.097   7.097   4.911
  589DIO    H1832982   1.106   6.965   5.127
  589DIO    H1932983   1.237   7.073   5.182
  589DIO    H2032984   1.076   7.139   5.149
  590DIO     F132985   4.447   2.784  -0.352
  590DIO     C132986   4.369   2.870  -0.284
  590DIO     C232987   4.225   2.864  -0.300
  590DIO     C332988   4.136   2.959  -0.228
  590DIO     C432989   4.202   3.057  -0.139
  590DIO     C532990   4.346   3.061  -0.125
  590DIO     F232991   4.401   3.149  -0.039
  590DIO     C632992   4.430   2.968  -0.196
  590DIO     F332993   4.564   2.973  -0.183
  590DIO     C732994   3.990   2.955  -0.244
  590DIO     C832995   3.913   3.077  -0.275
  590DIO     C932996   3.768   3.074  -0.290
  590DIO    C1032997   3.695   2.951  -0.264
  590DIO    C1132998   3.768   2.827  -0.241
  590DIO    C1232999   3.912   2.830  -0.228
  590DIO     F433000   3.977   2.715  -0.201
  590DIO     O133001   3.563   2.948  -0.303
  590DIO    C1333002   3.469   2.876  -0.231
  590DIO     O233003   3.468   2.830  -0.114
  590DIO    C1433004   3.340   2.867  -0.300
  590DIO    C1533005   3.273   2.986  -0.357
  590DIO     F533006   3.336   3.106  -0.356
  590DIO    C1633007   3.143   2.981  -0.420
  590DIO    C1733008   3.067   2.856  -0.422
  590DIO    C1833009   3.136   2.734  -0.382
  590DIO    C1933010   3.267   2.740  -0.320
  590DIO     F633011   3.330   2.622  -0.299
  590DIO    C2033012   2.926   2.851  -0.477
  590DIO     O333013   2.856   2.976  -0.468
  590DIO    C2133014   2.813   3.006  -0.336
  590DIO    C2233015   2.724   2.894  -0.282
  590DIO    C2333016   2.805   2.765  -0.291
  590DIO     O433017   2.849   2.742  -0.424
  590DIO    C2433018   2.591   2.879  -0.359
  590DIO    C2533019   2.500   3.003  -0.361
  590DIO    C2633020   2.462   3.053  -0.223
  590DIO     H133021   4.182   2.789  -0.365
  590DIO     H233022   4.141   3.122  -0.077
  590DIO     H333023   3.964   3.171  -0.293
  590DIO     H433024   3.713   3.161  -0.321
  590DIO     H533025   3.714   2.735  -0.227
  590DIO     H633026   3.104   3.070  -0.468
  590DIO     H733027   3.093   2.637  -0.402
  590DIO     H833028   2.936   2.831  -0.584
  590DIO     H933029   2.899   3.021  -0.271
  590DIO    H1033030   2.760   3.101  -0.339
  590DIO    H1133031   2.701   2.914  -0.176
  590DIO    H1233032   2.743   2.679  -0.261
  590DIO    H1333033   2.891   2.768  -0.223
  590DIO    H1433034   2.611   2.851  -0.463
  590DIO    H1533035   2.535   2.796  -0.315
  590DIO    H1633036   2.548   3.084  -0.418
  590DIO    H1733037   2.409   2.977  -0.416
  590DIO    H1833038   2.418   2.973  -0.162
  590DIO    H1933039   2.548   3.094  -0.169
  590DIO    H2033040   2.388   3.134  -0.232
  591DIO     F133041   7.485   5.318   5.092
  591DIO     C133042   7.407   5.350   5.198
  591DIO     C233043   7.263   5.354   5.181
  591DIO     C333044   7.174   5.391   5.294
  591DIO     C433045   7.240   5.420   5.423
  591DIO     C533046   7.384   5.416   5.437
  591DIO     F233047   7.440   5.439   5.558
  591DIO     C633048   7.468   5.380   5.325
  591DIO     F333049   7.602   5.377   5.339
  591DIO     C733050   7.028   5.397   5.279
  591DIO     C833051   6.951   5.515   5.323
  591DIO     C933052   6.806   5.520   5.309
  591DIO    C1033053   6.734   5.405   5.260
  591DIO    C1133054   6.806   5.290   5.208
  591DIO    C1233055   6.950   5.286   5.220
  591DIO     F433056   7.015   5.176   5.177
  591DIO     O133057   6.601   5.425   5.227
  591DIO    C1333058   6.507   5.325   5.245
  591DIO     O233059   6.506   5.220   5.314
  591DIO    C1433060   6.378   5.357   5.183
  591DIO    C1533061   6.311   5.487   5.204
  591DIO     F533062   6.374   5.584   5.274
  591DIO    C1633063   6.181   5.519   5.149
  591DIO    C1733064   6.105   5.418   5.076
  591DIO    C1833065   6.174   5.294   5.040
  591DIO    C1933066   6.305   5.264   5.093
  591DIO     F633067   6.368   5.155   5.043
  591DIO    C2033068   5.964   5.445   5.028
  591DIO     O333069   5.894   5.542   5.107
  591DIO    C2133070   5.851   5.491   5.232
  591DIO    C2233071   5.762   5.369   5.213
  591DIO    C2333072   5.843   5.268   5.132
  591DIO     O433073   5.887   5.326   5.009
  591DIO    C2433074   5.629   5.401   5.141
  591DIO    C2533075   5.538   5.503   5.210
  591DIO    C2633076   5.500   5.465   5.352
  591DIO     H133077   7.221   5.330   5.085
  591DIO     H233078   7.179   5.438   5.512
  591DIO     H333079   7.002   5.601   5.362
  591DIO     H433080   6.751   5.610   5.334
  591DIO     H533081   6.752   5.206   5.167
  591DIO     H633082   6.143   5.619   5.161
  591DIO     H733083   6.131   5.226   4.968
  591DIO     H833084   5.974   5.489   4.929
  591DIO     H933085   5.937   5.467   5.294
  591DIO    H1033086   5.798   5.571   5.284
  591DIO    H1133087   5.739   5.325   5.311
  591DIO    H1233088   5.782   5.180   5.107
  591DIO    H1333089   5.929   5.231   5.189
  591DIO    H1433090   5.649   5.436   5.039
  591DIO    H1533091   5.573   5.307   5.130
  591DIO    H1633092   5.586   5.602   5.210
  591DIO    H1733093   5.447   5.513   5.151
  591DIO    H1833094   5.456   5.365   5.356
  591DIO    H1933095   5.587   5.468   5.419
  591DIO    H2033096   5.426   5.536   5.391
  592DIO     F133097   6.816   3.548   6.582
  592DIO     C133098   6.739   3.507   6.684
  592DIO     C233099   6.594   3.520   6.673
  592DIO     C333100   6.506   3.478   6.784
  592DIO     C433101   6.571   3.419   6.903
  592DIO     C533102   6.715   3.407   6.911
  592DIO     F233103   6.771   3.349   7.019
  592DIO     C633104   6.799   3.450   6.802
  592DIO     F333105   6.933   3.439   6.811
  592DIO     C733106   6.359   3.492   6.776
  592DIO     C833107   6.282   3.556   6.885
  592DIO     C933108   6.137   3.569   6.877
  592DIO    C1033109   6.065   3.510   6.766
  592DIO    C1133110   6.137   3.453   6.654
  592DIO    C1233111   6.281   3.442   6.660
  592DIO     F433112   6.346   3.384   6.558
  592DIO     O133113   5.933   3.547   6.753
  592DIO    C1333114   5.838   3.457   6.704
  592DIO     O233115   5.837   3.332   6.692
  592DIO    C1433116   5.709   3.521   6.676
  592DIO    C1533117   5.643   3.609   6.775
  592DIO     F533118   5.705   3.641   6.890
  592DIO    C1633119   5.512   3.668   6.752
  592DIO    C1733120   5.436   3.636   6.632
  592DIO    C1833121   5.505   3.563   6.526
  592DIO    C1933122   5.637   3.506   6.548
  592DIO     F633123   5.699   3.452   6.441
  592DIO    C2033124   5.295   3.687   6.612
  592DIO     O333125   5.226   3.713   6.734
  592DIO    C2133126   5.182   3.595   6.799
  592DIO    C2233127   5.093   3.511   6.707
  592DIO    C2333128   5.174   3.484   6.581
  592DIO     O433129   5.218   3.606   6.522
  592DIO    C2433130   4.960   3.582   6.671
  592DIO    C2533131   4.870   3.618   6.790
  592DIO    C2633132   4.831   3.499   6.876
  592DIO     H133133   6.552   3.562   6.583
  592DIO     H233134   6.511   3.377   6.983
  592DIO     H333135   6.334   3.598   6.970
  592DIO     H433136   6.082   3.623   6.953
  592DIO     H533137   6.083   3.414   6.569
  592DIO     H633138   5.474   3.739   6.825
  592DIO     H733139   5.462   3.555   6.426
  592DIO     H833140   5.305   3.784   6.562
  592DIO     H933141   5.269   3.536   6.832
  592DIO    H1033142   5.129   3.624   6.890
  592DIO    H1133143   5.071   3.416   6.756
  592DIO    H1233144   5.113   3.432   6.506
  592DIO    H1333145   5.260   3.420   6.602
  592DIO    H1433146   4.980   3.674   6.615
  592DIO    H1533147   4.904   3.516   6.604
  592DIO    H1633148   4.917   3.695   6.852
  592DIO    H1733149   4.778   3.663   6.750
  592DIO    H1833150   4.787   3.419   6.816
  592DIO    H1933151   4.918   3.459   6.930
  592DIO    H2033152   4.758   3.530   6.951
  593DIO     F133153   3.616   6.704   2.127
  593DIO     C133154   3.539   6.597   2.149
  593DIO     C233155   3.395   6.613   2.155
  593DIO     C333156   3.306   6.497   2.181
  593DIO     C433157   3.371   6.365   2.199
  593DIO     C533158   3.516   6.352   2.193
  593DIO     F233159   3.571   6.230   2.205
  593DIO     C633160   3.599   6.467   2.168
  593DIO     F333161   3.733   6.453   2.163
  593DIO     C733162   3.159   6.511   2.188
  593DIO     C833163   3.082   6.456   2.302
  593DIO     C933164   2.938   6.470   2.309
  593DIO    C1033165   2.865   6.530   2.198
  593DIO    C1133166   2.937   6.591   2.088
  593DIO    C1233167   3.082   6.580   2.083
  593DIO     F433168   3.146   6.633   1.977
  593DIO     O133169   2.733   6.561   2.222
  593DIO    C1333170   2.638   6.552   2.120
  593DIO     O233171   2.637   6.493   2.009
  593DIO    C1433172   2.509   6.611   2.157
  593DIO    C1533173   2.443   6.578   2.285
  593DIO     F533174   2.505   6.499   2.376
  593DIO    C1633175   2.312   6.629   2.321
  593DIO    C1733176   2.236   6.711   2.228
  593DIO    C1833177   2.305   6.759   2.108
  593DIO    C1933178   2.437   6.709   2.073
  593DIO     F633179   2.499   6.768   1.969
  593DIO    C2033180   2.096   6.756   2.259
  593DIO     O333181   2.026   6.670   2.349
  593DIO    C2133182   1.982   6.549   2.287
  593DIO    C2233183   1.893   6.579   2.166
  593DIO    C2333184   1.974   6.670   2.073
  593DIO     O433185   2.018   6.786   2.142
  593DIO    C2433186   1.760   6.648   2.205
  593DIO    C2533187   1.670   6.570   2.300
  593DIO    C2633188   1.631   6.432   2.250
  593DIO     H133189   3.352   6.711   2.140
  593DIO     H233190   3.311   6.276   2.208
  593DIO     H333191   3.134   6.410   2.384
  593DIO     H433192   2.882   6.437   2.396
  593DIO     H533193   2.883   6.641   2.009
  593DIO     H633194   2.274   6.608   2.421
  593DIO     H733195   2.262   6.837   2.047
  593DIO     H833196   2.105   6.852   2.312
  593DIO     H933197   2.069   6.490   2.256
  593DIO    H1033198   1.929   6.490   2.362
  593DIO    H1133199   1.871   6.486   2.114
  593DIO    H1233200   1.913   6.702   1.989
  593DIO    H1333201   2.060   6.616   2.032
  593DIO    H1433202   1.780   6.746   2.250
  593DIO    H1533203   1.704   6.668   2.113
  593DIO    H1633204   1.717   6.561   2.399
  593DIO    H1733205   1.578   6.628   2.316
  593DIO    H1833206   1.587   6.437   2.150
  593DIO    H1933207   1.718   6.365   2.246
  593DIO    H2033208   1.558   6.387   2.317
  594DIO     F133209   4.959   7.764  -0.918
  594DIO     C133210   4.881   7.667  -0.865
  594DIO     C233211   4.737   7.684  -0.865
  594DIO     C333212   4.648   7.581  -0.806
  594DIO     C433213   4.714   7.460  -0.750
  594DIO     C533214   4.858   7.446  -0.752
  594DIO     F233215   4.913   7.333  -0.704
  594DIO     C633216   4.942   7.548  -0.810
  594DIO     F333217   5.075   7.534  -0.810
  594DIO     C733218   4.502   7.597  -0.803
  594DIO     C833219   4.425   7.578  -0.678
  594DIO     C933220   4.280   7.593  -0.676
  594DIO    C1033221   4.207   7.617  -0.799
  594DIO    C1133222   4.280   7.644  -0.922
  594DIO    C1233223   4.424   7.632  -0.924
  594DIO     F433224   4.489   7.652  -1.040
  594DIO     O133225   4.075   7.654  -0.786
  594DIO    C1333226   3.981   7.616  -0.881
  594DIO     O233227   3.980   7.526  -0.969
  594DIO    C1433228   3.851   7.683  -0.862
  594DIO    C1533229   3.785   7.689  -0.730
  594DIO     F533230   3.848   7.641  -0.620
  594DIO    C1633231   3.654   7.749  -0.711
  594DIO    C1733232   3.579   7.800  -0.824
  594DIO    C1833233   3.647   7.810  -0.953
  594DIO    C1933234   3.779   7.752  -0.971
  594DIO     F633235   3.841   7.778  -1.088
  594DIO    C2033236   3.438   7.852  -0.808
  594DIO     O333237   3.368   7.796  -0.696
  594DIO    C2133238   3.324   7.662  -0.720
  594DIO    C2233239   3.236   7.655  -0.844
  594DIO    C2333240   3.316   7.714  -0.960
  594DIO     O433241   3.361   7.846  -0.928
  594DIO    C2433242   3.103   7.733  -0.828
  594DIO    C2533243   3.012   7.686  -0.713
  594DIO    C2633244   2.974   7.539  -0.721
  594DIO     H133245   4.694   7.774  -0.908
  594DIO     H233246   4.653   7.378  -0.715
  594DIO     H333247   4.476   7.557  -0.586
  594DIO     H433248   4.225   7.587  -0.583
  594DIO     H533249   4.225   7.668  -1.013
  594DIO     H633250   3.616   7.758  -0.610
  594DIO     H733251   3.604   7.867  -1.034
  594DIO     H833252   3.448   7.959  -0.785
  594DIO     H933253   3.411   7.596  -0.732
  594DIO    H1033254   3.272   7.628  -0.631
  594DIO    H1133255   3.213   7.551  -0.867
  594DIO    H1233256   3.255   7.721  -1.050
  594DIO    H1333257   3.402   7.651  -0.984
  594DIO    H1433258   3.123   7.840  -0.813
  594DIO    H1533259   3.046   7.724  -0.921
  594DIO    H1633260   3.059   7.707  -0.616
  594DIO    H1733261   2.920   7.746  -0.715
  594DIO    H1833262   2.930   7.515  -0.818
  594DIO    H1933263   3.060   7.474  -0.705
  594DIO    H2033264   2.900   7.516  -0.643
  595DIO     F133265   2.026   7.568  -0.687
  595DIO     C133266   1.948   7.627  -0.781
  595DIO     C233267   1.804   7.611  -0.773
  595DIO     C333268   1.715   7.672  -0.874
  595DIO     C433269   1.781   7.750  -0.982
  595DIO     C533270   1.925   7.764  -0.987
  595DIO     F233271   1.980   7.839  -1.084
  595DIO     C633272   2.009   7.703  -0.887
  595DIO     F333273   2.143   7.715  -0.894
  595DIO     C733274   1.569   7.657  -0.869
  595DIO     C833275   1.492   7.613  -0.987
  595DIO     C933276   1.347   7.598  -0.982
  595DIO    C1033277   1.274   7.637  -0.863
  595DIO    C1133278   1.347   7.674  -0.742
  595DIO    C1233279   1.491   7.686  -0.747
  595DIO     F433280   1.556   7.726  -0.635
  595DIO     O133281   1.142   7.599  -0.856
  595DIO    C1333282   1.048   7.679  -0.792
  595DIO     O233283   1.047   7.800  -0.759
  595DIO    C1433284   0.919   7.611  -0.776
  595DIO    C1533285   0.852   7.541  -0.888
  595DIO     F533286   0.915   7.530  -1.007
  595DIO    C1633287   0.722   7.479  -0.876
  595DIO    C1733288   0.646   7.491  -0.751
  595DIO    C1833289   0.715   7.544  -0.634
  595DIO    C1933290   0.846   7.604  -0.647
  595DIO     F633291   0.909   7.639  -0.532
  595DIO    C2033292   0.505   7.437  -0.740
  595DIO     O333293   0.435   7.432  -0.865
  595DIO    C2133294   0.392   7.560  -0.909
  595DIO    C2233295   0.303   7.626  -0.805
  595DIO    C2333296   0.384   7.631  -0.675
  595DIO     O433297   0.428   7.501  -0.638
  595DIO    C2433298   0.170   7.551  -0.781
  595DIO    C2533299   0.079   7.535  -0.904
  595DIO    C2633300   0.041   7.667  -0.969
  595DIO     H133301   1.761   7.555  -0.691
  595DIO     H233302   1.720   7.805  -1.053
  595DIO     H333303   1.543   7.585  -1.078
  595DIO     H433304   1.292   7.558  -1.066
  595DIO     H533305   1.293   7.698  -0.652
  595DIO     H633306   0.683   7.422  -0.959
  595DIO     H733307   0.672   7.535  -0.535
  595DIO     H833308   0.515   7.333  -0.708
  595DIO     H933309   0.478   7.623  -0.932
  595DIO    H1033310   0.339   7.546  -1.004
  595DIO    H1133311   0.280   7.729  -0.836
  595DIO    H1233312   0.322   7.670  -0.593
  595DIO    H1333313   0.470   7.698  -0.685
  595DIO    H1433314   0.190   7.450  -0.741
  595DIO    H1533315   0.114   7.604  -0.704
  595DIO    H1633316   0.127   7.470  -0.978
  595DIO    H1733317  -0.012   7.484  -0.872
  595DIO    H1833318  -0.003   7.736  -0.896
  595DIO    H1933319   0.127   7.716  -1.015
  595DIO    H2033320  -0.033   7.650  -1.048
  596DIO     F133321  10.512   9.041   1.350
  596DIO     C133322  10.434   9.087   1.250
  596DIO     C233323  10.290   9.073   1.260
  596DIO     C333324  10.201   9.121   1.151
  596DIO     C433325  10.267   9.185   1.035
  596DIO     C533326  10.411   9.198   1.028
  596DIO     F233327  10.466   9.261   0.922
  596DIO     C633328  10.495   9.150   1.135
  596DIO     F333329  10.628   9.161   1.127
  596DIO     C733330  10.055   9.107   1.159
  596DIO     C833331   9.978   9.048   1.047
  596DIO     C933332   9.833   9.035   1.054
  596DIO    C1033333   9.760   9.088   1.167
  596DIO    C1133334   9.833   9.140   1.282
  596DIO    C1233335   9.977   9.151   1.276
  596DIO     F433336  10.042   9.204   1.382
  596DIO     O133337   9.628   9.051   1.179
  596DIO    C1333338   9.534   9.138   1.232
  596DIO     O233339   9.533   9.262   1.250
  596DIO    C1433340   9.404   9.073   1.257
  596DIO    C1533341   9.338   8.989   1.154
  596DIO     F533342   9.401   8.963   1.037
  596DIO    C1633343   9.207   8.930   1.174
  596DIO    C1733344   9.132   8.956   1.296
  596DIO    C1833345   9.200   9.024   1.405
  596DIO    C1933346   9.332   9.082   1.385
  596DIO     F633347   9.394   9.131   1.495
  596DIO    C2033348   8.991   8.904   1.314
  596DIO     O333349   8.921   8.884   1.190
  596DIO    C2133350   8.877   9.005   1.130
  596DIO    C2233351   8.789   9.084   1.226
  596DIO    C2333352   8.869   9.105   1.354
  596DIO     O433353   8.914   8.981   1.407
  596DIO    C2433354   8.656   9.012   1.259
  596DIO    C2533355   8.565   8.982   1.139
  596DIO    C2633356   8.527   9.104   1.058
  596DIO     H133357  10.247   9.027   1.348
  596DIO     H233358  10.206   9.231   0.957
  596DIO     H333359  10.029   9.009   0.960
  596DIO     H433360   9.778   8.984   0.976
  596DIO     H533361   9.778   9.174   1.369
  596DIO     H633362   9.169   8.862   1.098
  596DIO     H733363   9.157   9.027   1.505
  596DIO     H833364   9.001   8.805   1.358
  596DIO     H933365   8.964   9.065   1.100
  596DIO    H1033366   8.825   8.980   1.038
  596DIO    H1133367   8.766   9.182   1.182
  596DIO    H1233368   8.808   9.154   1.431
  596DIO    H1333369   8.955   9.171   1.336
  596DIO    H1433370   8.676   8.918   1.311
  596DIO    H1533371   8.599   9.074   1.329
  596DIO    H1633372   8.612   8.908   1.073
  596DIO    H1733373   8.473   8.935   1.177
  596DIO    H1833374   8.483   9.182   1.122
  596DIO    H1933375   8.613   9.147   1.006
  596DIO    H2033376   8.453   9.077   0.982
  597DIO     F133377  10.446   0.614   0.138
  597DIO     C133378  10.368   0.505   0.149
  597DIO     C233379  10.224   0.520   0.156
  597DIO     C333380  10.136   0.403   0.171
  597DIO     C433381  10.201   0.270   0.176
  597DIO     C533382  10.345   0.257   0.169
  597DIO     F233383  10.401   0.135   0.170
  597DIO     C633384  10.429   0.374   0.155
  597DIO     F333385  10.563   0.361   0.150
  597DIO     C733386   9.989   0.417   0.180
  597DIO     C833387   9.912   0.351   0.288
  597DIO     C933388   9.767   0.364   0.296
  597DIO    C1033389   9.695   0.434   0.191
  597DIO    C1133390   9.767   0.506   0.088
  597DIO    C1233391   9.911   0.495   0.082
  597DIO     F433392   9.976   0.558  -0.018
  597DIO     O133393   9.563   0.463   0.218
  597DIO    C1333394   9.468   0.464   0.116
  597DIO     O233395   9.467   0.415  -0.000
  597DIO    C1433396   9.339   0.518   0.159
  597DIO    C1533397   9.273   0.473   0.283
  597DIO     F533398   9.335   0.387   0.365
  597DIO    C1633399   9.142   0.521   0.324
  597DIO    C1733400   9.066   0.612   0.238
  597DIO    C1833401   9.135   0.671   0.124
  597DIO    C1933402   9.266   0.624   0.084
  597DIO     F633403   9.329   0.693  -0.014
  597DIO    C2033404   8.925   0.654   0.274
  597DIO     O333405   8.856   0.559   0.355
  597DIO    C2133406   8.812   0.445   0.282
  597DIO    C2233407   8.723   0.486   0.165
  597DIO    C2333408   8.804   0.585   0.081
  597DIO     O433409   8.848   0.695   0.160
  597DIO    C2433410   8.590   0.551   0.210
  597DIO    C2533411   8.500   0.464   0.297
  597DIO    C2633412   8.461   0.332   0.234
  597DIO     H133413  10.182   0.620   0.151
  597DIO     H233414  10.140   0.180   0.177
  597DIO     H333415   9.964   0.296   0.366
  597DIO     H433416   9.712   0.323   0.379
  597DIO     H533417   9.713   0.562   0.014
  597DIO     H633418   9.104   0.491   0.421
  597DIO     H733419   9.092   0.754   0.070
  597DIO     H833420   8.935   0.743   0.336
  597DIO     H933421   8.899   0.388   0.246
  597DIO    H1033422   8.759   0.379   0.351
  597DIO    H1133423   8.701   0.398   0.103
  597DIO    H1233424   8.743   0.626  -0.001
  597DIO    H1333425   8.890   0.536   0.034
  597DIO    H1433426   8.610   0.644   0.264
  597DIO    H1533427   8.534   0.580   0.120
  597DIO    H1633428   8.547   0.446   0.394
  597DIO    H1733429   8.408   0.521   0.318
  597DIO    H1833430   8.417   0.346   0.135
  597DIO    H1933431   8.548   0.265   0.224
  597DIO    H2033432   8.388   0.280   0.296
  598DIO     F133433  10.324   0.993   6.981
  598DIO     C133434  10.247   1.103   6.980
  598DIO     C233435  10.103   1.088   6.972
  598DIO     C333436  10.014   1.206   6.968
  598DIO     C433437  10.079   1.339   6.976
  598DIO     C533438  10.224   1.351   6.984
  598DIO     F233439  10.279   1.473   6.995
  598DIO     C633440  10.307   1.234   6.987
  598DIO     F333441  10.441   1.246   6.994
  598DIO     C733442   9.867   1.194   6.958
  598DIO     C833443   9.790   1.269   6.857
  598DIO     C933444   9.646   1.257   6.848
  598DIO    C1033445   9.573   1.178   6.945
  598DIO    C1133446   9.645   1.096   7.041
  598DIO    C1233447   9.790   1.106   7.049
  598DIO     F433448   9.854   1.034   7.142
  598DIO     O133449   9.441   1.151   6.916
  598DIO    C1333450   9.346   1.141   7.018
  598DIO     O233451   9.345   1.178   7.138
  598DIO    C1433452   9.217   1.090   6.970
  598DIO    C1533453   9.151   1.147   6.850
  598DIO     F533454   9.213   1.241   6.776
  598DIO    C1633455   9.020   1.103   6.805
  598DIO    C1733456   8.944   1.005   6.882
  598DIO    C1833457   9.013   0.935   6.990
  598DIO    C1933458   9.145   0.978   7.034
  598DIO     F633459   9.207   0.900   7.125
  598DIO    C2033460   8.804   0.966   6.843
  598DIO     O333461   8.734   1.069   6.771
  598DIO    C2133462   8.690   1.175   6.854
  598DIO    C2233463   8.601   1.123   6.967
  598DIO    C2333464   8.682   1.017   7.041
  598DIO     O433465   8.726   0.915   6.952
  598DIO    C2433466   8.468   1.063   6.916
  598DIO    C2533467   8.378   1.157   6.837
  598DIO    C2633468   8.339   1.283   6.913
  598DIO     H133469  10.060   0.989   6.968
  598DIO     H233470  10.019   1.429   6.983
  598DIO     H333471   9.842   1.331   6.785
  598DIO     H433472   9.590   1.306   6.769
  598DIO     H533473   9.591   1.033   7.110
  598DIO     H633474   8.982   1.142   6.712
  598DIO     H733475   8.970   0.847   7.036
  598DIO     H833476   8.813   0.883   6.772
  598DIO     H933477   8.777   1.228   6.895
  598DIO    H1033478   8.637   1.248   6.792
  598DIO    H1133479   8.579   1.205   7.036
  598DIO    H1233480   8.621   0.969   7.118
  598DIO    H1333481   8.768   1.061   7.092
  598DIO    H1433482   8.488   0.975   6.853
  598DIO    H1533483   8.412   1.026   7.003
  598DIO    H1633484   8.425   1.185   6.742
  598DIO    H1733485   8.286   1.103   6.811
  598DIO    H1833486   8.295   1.259   7.010
  598DIO    H1933487   8.426   1.348   6.929
  598DIO    H2033488   8.266   1.341   6.855
  599DIO     F133489   8.110   3.815   5.544
  599DIO     C133490   8.032   3.917   5.586
  599DIO     C233491   7.888   3.906   5.572
  599DIO     C333492   7.799   4.017   5.615
  599DIO     C433493   7.865   4.136   5.673
  599DIO     C533494   8.009   4.144   5.685
  599DIO     F233495   8.064   4.253   5.743
  599DIO     C633496   8.093   4.035   5.642
  599DIO     F333497   8.226   4.044   5.654
  599DIO     C733498   7.653   4.009   5.601
  599DIO     C833499   7.576   4.118   5.536
  599DIO     C933500   7.431   4.110   5.523
  599DIO    C1033501   7.358   3.999   5.582
  599DIO    C1133502   7.431   3.887   5.640
  599DIO    C1233503   7.575   3.894   5.650
  599DIO     F433504   7.640   3.791   5.709
  599DIO     O133505   7.226   3.986   5.545
  599DIO    C1333506   7.132   3.937   5.635
  599DIO     O233507   7.131   3.925   5.761
  599DIO    C1433508   7.002   3.909   5.571
  599DIO    C1533509   6.936   4.008   5.483
  599DIO     F533510   6.999   4.123   5.451
  599DIO    C1633511   6.805   3.985   5.424
  599DIO    C1733512   6.730   3.864   5.457
  599DIO    C1833513   6.798   3.758   5.530
  599DIO    C1933514   6.930   3.781   5.587
  599DIO     F633515   6.992   3.674   5.641
  599DIO    C2033516   6.589   3.844   5.406
  599DIO     O333517   6.519   3.966   5.379
  599DIO    C2133518   6.475   4.032   5.498
  599DIO    C2233519   6.387   3.940   5.581
  599DIO    C2333520   6.467   3.814   5.609
  599DIO     O433521   6.512   3.754   5.487
  599DIO    C2433522   6.254   3.904   5.511
  599DIO    C2533523   6.163   4.022   5.475
  599DIO    C2633524   6.125   4.109   5.593
  599DIO     H133525   7.845   3.816   5.531
  599DIO     H233526   7.804   4.216   5.715
  599DIO     H333527   7.627   4.203   5.494
  599DIO     H433528   7.376   4.186   5.469
  599DIO     H533529   7.376   3.802   5.679
  599DIO     H633530   6.767   4.057   5.353
  599DIO     H733531   6.755   3.659   5.538
  599DIO     H833532   6.599   3.794   5.309
  599DIO     H933533   6.562   4.065   5.556
  599DIO    H1033534   6.423   4.123   5.468
  599DIO    H1133535   6.364   3.989   5.677
  599DIO    H1233536   6.406   3.740   5.661
  599DIO    H1333537   6.553   3.835   5.673
  599DIO    H1433538   6.274   3.847   5.419
  599DIO    H1533539   6.197   3.837   5.577
  599DIO    H1633540   6.210   4.084   5.398
  599DIO    H1733541   6.071   3.982   5.429
  599DIO    H1833542   6.081   4.049   5.674
  599DIO    H1933543   6.211   4.163   5.633
  599DIO    H2033544   6.051   4.184   5.562
  600DIO     F133545  10.035   2.469   9.076
  600DIO     C133546   9.957   2.579   9.071
  600DIO     C233547   9.813   2.564   9.063
  600DIO     C333548   9.724   2.682   9.056
  600DIO     C433549   9.790   2.815   9.059
  600DIO     C533550   9.934   2.827   9.067
  600DIO     F233551   9.990   2.950   9.074
  600DIO     C633552  10.018   2.710   9.074
  600DIO     F333553  10.152   2.723   9.080
  600DIO     C733554   9.578   2.669   9.046
  600DIO     C833555   9.501   2.741   8.943
  600DIO     C933556   9.356   2.729   8.934
  600DIO    C1033557   9.284   2.653   9.034
  600DIO    C1133558   9.356   2.574   9.132
  600DIO    C1233559   9.500   2.585   9.139
  600DIO     F433560   9.565   2.516   9.235
  600DIO     O133561   9.151   2.626   9.005
  600DIO    C1333562   9.057   2.618   9.107
  600DIO     O233563   9.056   2.660   9.226
  600DIO    C1433564   8.928   2.566   9.061
  600DIO    C1533565   8.862   2.619   8.940
  600DIO     F533566   8.924   2.711   8.863
  600DIO    C1633567   8.731   2.574   8.896
  600DIO    C1733568   8.655   2.478   8.976
  600DIO    C1833569   8.724   2.412   9.086
  600DIO    C1933570   8.855   2.456   9.129
  600DIO     F633571   8.918   2.381   9.222
  600DIO    C2033572   8.514   2.438   8.938
  600DIO     O333573   8.445   2.538   8.863
  600DIO    C2133574   8.401   2.647   8.943
  600DIO    C2233575   8.312   2.599   9.057
  600DIO    C2333576   8.393   2.495   9.135
  600DIO     O433577   8.437   2.390   9.048
  600DIO    C2433578   8.179   2.537   9.008
  600DIO    C2533579   8.089   2.629   8.926
  600DIO    C2633580   8.050   2.757   8.998
  600DIO     H133581   9.771   2.464   9.063
  600DIO     H233582   9.729   2.905   9.064
  600DIO     H333583   9.552   2.801   8.868
  600DIO     H433584   9.301   2.775   8.853
  600DIO     H533585   9.302   2.513   9.203
  600DIO     H633586   8.693   2.610   8.801
  600DIO     H733587   8.681   2.325   9.135
  600DIO     H833588   8.524   2.353   8.870
  600DIO     H933589   8.488   2.702   8.982
  600DIO    H1033590   8.348   2.718   8.878
  600DIO    H1133591   8.289   2.683   9.124
  600DIO    H1233592   8.332   2.449   9.213
  600DIO    H1333593   8.479   2.541   9.184
  600DIO    H1433594   8.199   2.447   8.948
  600DIO    H1533595   8.123   2.503   9.096
  600DIO    H1633596   8.136   2.653   8.830
  600DIO    H1733597   7.997   2.574   8.902
  600DIO    H1833598   8.006   2.736   9.096
  600DIO    H1933599   8.137   2.823   9.012
  600DIO    H2033600   7.976   2.813   8.939
  601DIO     F133601   6.274   6.347   2.837
  601DIO     C133602   6.196   6.239   2.816
  601DIO     C233603   6.052   6.251   2.827
  601DIO     C333604   5.963   6.135   2.806
  601DIO     C433605   6.029   6.007   2.771
  601DIO     C533606   6.173   5.997   2.761
  601DIO     F233607   6.228   5.879   2.725
  601DIO     C633608   6.257   6.112   2.782
  601DIO     F333609   6.391   6.101   2.773
  601DIO     C733610   5.817   6.145   2.818
  601DIO     C833611   5.740   6.051   2.902
  601DIO     C933612   5.595   6.060   2.913
  601DIO    C1033613   5.522   6.158   2.835
  601DIO    C1133614   5.595   6.258   2.757
  601DIO    C1233615   5.739   6.249   2.748
  601DIO     F433616   5.804   6.339   2.672
  601DIO     O133617   5.390   6.178   2.868
  601DIO    C1333618   5.296   6.209   2.771
  601DIO     O233619   5.295   6.197   2.646
  601DIO    C1433620   5.167   6.249   2.829
  601DIO    C1533621   5.100   6.169   2.934
  601DIO     F533622   5.163   6.061   2.987
  601DIO    C1633623   4.970   6.202   2.987
  601DIO    C1733624   4.894   6.314   2.932
  601DIO    C1833625   4.963   6.405   2.841
  601DIO    C1933626   5.094   6.372   2.789
  601DIO     F633627   5.157   6.467   2.716
  601DIO    C2033628   4.753   6.344   2.979
  601DIO     O333629   4.683   6.229   3.028
  601DIO    C2133630   4.640   6.142   2.924
  601DIO    C2233631   4.551   6.216   2.825
  601DIO    C2333632   4.632   6.336   2.774
  601DIO     O433633   4.676   6.417   2.883
  601DIO    C2433634   4.418   6.265   2.887
  601DIO    C2533635   4.327   6.156   2.945
  601DIO    C2633636   4.289   6.048   2.845
  601DIO     H133637   6.009   6.348   2.851
  601DIO     H233638   5.968   5.920   2.745
  601DIO     H333639   5.791   5.975   2.960
  601DIO     H433640   5.540   5.996   2.981
  601DIO     H533641   5.541   6.334   2.703
  601DIO     H633642   4.931   6.144   3.070
  601DIO     H733643   4.920   6.500   2.814
  601DIO     H833644   4.763   6.411   3.065
  601DIO     H933645   4.726   6.099   2.873
  601DIO    H1033646   4.587   6.058   2.970
  601DIO    H1133647   4.528   6.151   2.740
  601DIO    H1233648   4.570   6.399   2.708
  601DIO    H1333649   4.718   6.302   2.715
  601DIO    H1433650   4.438   6.338   2.966
  601DIO    H1533651   4.362   6.319   2.810
  601DIO    H1633652   4.375   6.109   3.032
  601DIO    H1733653   4.236   6.203   2.982
  601DIO    H1833654   4.245   6.092   2.754
  601DIO    H1933655   4.375   5.988   2.815
  601DIO    H2033656   4.215   5.980   2.889
  602DIO     F133657   4.343   8.466   4.112
  602DIO     C133658   4.265   8.381   4.042
  602DIO     C233659   4.121   8.387   4.058
  602DIO     C333660   4.032   8.294   3.985
  602DIO     C433661   4.098   8.197   3.894
  602DIO     C533662   4.242   8.193   3.880
  602DIO     F233663   4.298   8.106   3.793
  602DIO     C633664   4.326   8.285   3.953
  602DIO     F333665   4.460   8.280   3.940
  602DIO     C733666   3.886   8.297   4.001
  602DIO     C833667   3.809   8.174   4.030
  602DIO     C933668   3.664   8.178   4.045
  602DIO    C1033669   3.592   8.301   4.021
  602DIO    C1133670   3.664   8.425   4.000
  602DIO    C1233671   3.808   8.422   3.988
  602DIO     F433672   3.873   8.538   3.962
  602DIO     O133673   3.459   8.303   4.060
  602DIO    C1333674   3.365   8.376   3.989
  602DIO     O233675   3.364   8.424   3.873
  602DIO    C1433676   3.236   8.384   4.058
  602DIO    C1533677   3.169   8.264   4.114
  602DIO     F533678   3.232   8.144   4.110
  602DIO    C1633679   3.039   8.268   4.176
  602DIO    C1733680   2.963   8.393   4.181
  602DIO    C1833681   3.032   8.516   4.142
  602DIO    C1933682   3.163   8.511   4.081
  602DIO     F633683   3.226   8.629   4.062
  602DIO    C2033684   2.822   8.397   4.235
  602DIO     O333685   2.752   8.272   4.225
  602DIO    C2133686   2.709   8.245   4.092
  602DIO    C2233687   2.620   8.357   4.040
  602DIO    C2333688   2.701   8.486   4.051
  602DIO     O433689   2.745   8.507   4.185
  602DIO    C2433690   2.487   8.371   4.117
  602DIO    C2533691   2.396   8.247   4.117
  602DIO    C2633692   2.358   8.199   3.978
  602DIO     H133693   4.079   8.461   4.125
  602DIO     H233694   4.037   8.133   3.831
  602DIO     H333695   3.860   8.081   4.046
  602DIO     H433696   3.609   8.089   4.074
  602DIO     H533697   3.610   8.518   3.988
  602DIO     H633698   3.001   8.178   4.223
  602DIO     H733699   2.989   8.613   4.164
  602DIO     H833700   2.832   8.416   4.343
  602DIO     H933701   2.795   8.230   4.027
  602DIO    H1033702   2.656   8.149   4.094
  602DIO    H1133703   2.597   8.339   3.934
  602DIO    H1233704   2.640   8.572   4.023
  602DIO    H1333705   2.787   8.485   3.983
  602DIO    H1433706   2.507   8.398   4.222
  602DIO    H1533707   2.431   8.455   4.075
  602DIO    H1633708   2.444   8.165   4.172
  602DIO    H1733709   2.305   8.272   4.172
  602DIO    H1833710   2.314   8.280   3.919
  602DIO    H1933711   2.445   8.160   3.924
  602DIO    H2033712   2.284   8.119   3.985
  603DIO     F133713   6.744  -0.846   5.346
  603DIO     C133714   6.666  -0.744   5.388
  603DIO     C233715   6.522  -0.754   5.375
  603DIO     C333716   6.433  -0.644   5.417
  603DIO     C433717   6.499  -0.524   5.476
  603DIO     C533718   6.643  -0.517   5.488
  603DIO     F233719   6.698  -0.408   5.546
  603DIO     C633720   6.727  -0.626   5.445
  603DIO     F333721   6.861  -0.617   5.456
  603DIO     C733722   6.287  -0.652   5.403
  603DIO     C833723   6.210  -0.543   5.339
  603DIO     C933724   6.065  -0.550   5.326
  603DIO    C1033725   5.992  -0.661   5.385
  603DIO    C1133726   6.065  -0.774   5.442
  603DIO    C1233727   6.209  -0.767   5.453
  603DIO     F433728   6.274  -0.870   5.511
  603DIO     O133729   5.860  -0.674   5.348
  603DIO    C1333730   5.766  -0.723   5.438
  603DIO     O233731   5.765  -0.736   5.563
  603DIO    C1433732   5.637  -0.751   5.374
  603DIO    C1533733   5.570  -0.653   5.286
  603DIO     F533734   5.633  -0.537   5.254
  603DIO    C1633735   5.440  -0.675   5.227
  603DIO    C1733736   5.364  -0.796   5.259
  603DIO    C1833737   5.433  -0.902   5.332
  603DIO    C1933738   5.564  -0.879   5.389
  603DIO     F633739   5.627  -0.987   5.443
  603DIO    C2033740   5.223  -0.816   5.208
  603DIO     O333741   5.153  -0.694   5.182
  603DIO    C2133742   5.110  -0.628   5.300
  603DIO    C2233743   5.021  -0.720   5.384
  603DIO    C2333744   5.102  -0.847   5.411
  603DIO     O433745   5.146  -0.906   5.289
  603DIO    C2433746   4.888  -0.756   5.313
  603DIO    C2533747   4.797  -0.638   5.277
  603DIO    C2633748   4.759  -0.551   5.396
  603DIO     H133749   6.479  -0.844   5.333
  603DIO     H233750   6.438  -0.445   5.518
  603DIO     H333751   6.261  -0.458   5.297
  603DIO     H433752   6.010  -0.475   5.272
  603DIO     H533753   6.011  -0.859   5.481
  603DIO     H633754   5.401  -0.603   5.156
  603DIO     H733755   5.390  -1.001   5.340
  603DIO     H833756   5.233  -0.865   5.111
  603DIO     H933757   5.196  -0.595   5.359
  603DIO    H1033758   5.057  -0.537   5.271
  603DIO    H1133759   4.998  -0.672   5.479
  603DIO    H1233760   5.040  -0.921   5.463
  603DIO    H1333761   5.188  -0.826   5.475
  603DIO    H1433762   4.908  -0.813   5.221
  603DIO    H1533763   4.832  -0.824   5.379
  603DIO    H1633764   4.845  -0.576   5.200
  603DIO    H1733765   4.706  -0.678   5.232
  603DIO    H1833766   4.715  -0.611   5.476
  603DIO    H1933767   4.845  -0.498   5.436
  603DIO    H2033768   4.685  -0.476   5.366
  604DIO     F133769   8.824   1.565   9.105
  604DIO     C133770   8.746   1.667   9.063
  604DIO     C233771   8.602   1.650   9.061
  604DIO     C333772   8.513   1.759   9.014
  604DIO     C433773   8.579   1.885   8.972
  604DIO     C533774   8.723   1.900   8.976
  604DIO     F233775   8.778   2.018   8.941
  604DIO     C633776   8.807   1.791   9.022
  604DIO     F333777   8.940   1.805   9.023
  604DIO     C733778   8.367   1.744   9.010
  604DIO     C833779   8.290   1.777   8.888
  604DIO     C933780   8.145   1.762   8.884
  604DIO    C1033781   8.072   1.724   9.003
  604DIO    C1133782   8.145   1.683   9.122
  604DIO    C1233783   8.289   1.696   9.126
  604DIO     F433784   8.354   1.663   9.239
  604DIO     O133785   7.940   1.689   8.986
  604DIO    C1333786   7.846   1.716   9.084
  604DIO     O233787   7.845   1.795   9.182
  604DIO    C1433788   7.716   1.652   9.058
  604DIO    C1533789   7.650   1.661   8.926
  604DIO     F533790   7.713   1.721   8.823
  604DIO    C1633791   7.519   1.603   8.900
  604DIO    C1733792   7.444   1.540   9.008
  604DIO    C1833793   7.512   1.515   9.134
  604DIO    C1933794   7.644   1.571   9.159
  604DIO     F633795   7.706   1.532   9.272
  604DIO    C2033796   7.303   1.490   8.985
  604DIO     O333797   7.233   1.559   8.881
  604DIO    C2133798   7.189   1.688   8.920
  604DIO    C2233799   7.101   1.681   9.043
  604DIO    C2333800   7.181   1.609   9.151
  604DIO     O433801   7.226   1.482   9.105
  604DIO    C2433802   6.968   1.606   9.018
  604DIO    C2533803   6.877   1.665   8.910
  604DIO    C2633804   6.839   1.810   8.934
  604DIO     H133805   8.559   1.556   9.094
  604DIO     H233806   8.518   1.972   8.947
  604DIO     H333807   8.341   1.808   8.798
  604DIO     H433808   8.090   1.778   8.792
  604DIO     H533809   8.090   1.650   9.210
  604DIO     H633810   7.481   1.606   8.799
  604DIO     H733811   7.469   1.450   9.209
  604DIO     H833812   7.313   1.387   8.950
  604DIO     H933813   7.276   1.753   8.938
  604DIO    H1033814   7.137   1.733   8.835
  604DIO    H1133815   7.078   1.783   9.078
  604DIO    H1233816   7.120   1.593   9.241
  604DIO    H1333817   7.267   1.670   9.183
  604DIO    H1433818   6.988   1.501   8.992
  604DIO    H1533819   6.911   1.604   9.112
  604DIO    H1633820   6.924   1.656   8.812
  604DIO    H1733821   6.785   1.605   8.905
  604DIO    H1833822   6.795   1.824   9.034
  604DIO    H1933823   6.925   1.877   8.926
  604DIO    H2033824   6.765   1.843   8.860
  605DIO     F133825   4.408  10.765   3.751
  605DIO     C133826   4.331  10.684   3.677
  605DIO     C233827   4.186  10.689   3.693
  605DIO     C333828   4.098  10.600   3.615
  605DIO     C433829   4.163  10.508   3.518
  605DIO     C533830   4.307  10.505   3.504
  605DIO     F233831   4.363  10.423   3.412
  605DIO     C633832   4.391  10.593   3.582
  605DIO     F333833   4.525  10.588   3.569
  605DIO     C733834   3.951  10.603   3.630
  605DIO     C833835   3.874  10.478   3.653
  605DIO     C933836   3.729  10.481   3.668
  605DIO    C1033837   3.657  10.605   3.651
  605DIO    C1133838   3.729  10.730   3.636
  605DIO    C1233839   3.873  10.728   3.624
  605DIO     F433840   3.938  10.845   3.605
  605DIO     O133841   3.525  10.605   3.690
  605DIO    C1333842   3.430  10.682   3.623
  605DIO     O233843   3.429  10.736   3.510
  605DIO    C1433844   3.301  10.686   3.693
  605DIO    C1533845   3.235  10.563   3.741
  605DIO     F533846   3.297  10.444   3.731
  605DIO    C1633847   3.104  10.564   3.804
  605DIO    C1733848   3.028  10.688   3.815
  605DIO    C1833849   3.097  10.813   3.784
  605DIO    C1933850   3.229  10.811   3.722
  605DIO     F633851   3.291  10.930   3.709
  605DIO    C2033852   2.887  10.689   3.870
  605DIO     O333853   2.818  10.565   3.853
  605DIO    C2133854   2.774  10.545   3.719
  605DIO    C2233855   2.685  10.660   3.673
  605DIO    C2333856   2.766  10.788   3.691
  605DIO     O433857   2.810  10.801   3.826
  605DIO    C2433858   2.552  10.669   3.751
  605DIO    C2533859   2.462  10.546   3.744
  605DIO    C2633860   2.423  10.506   3.602
  605DIO     H133861   4.144  10.759   3.763
  605DIO     H233862   4.103  10.448   3.451
  605DIO     H333863   3.926  10.384   3.663
  605DIO     H433864   3.674  10.391   3.692
  605DIO     H533865   3.675  10.823   3.630
  605DIO     H633866   3.066  10.471   3.846
  605DIO     H733867   3.054  10.908   3.811
  605DIO     H833868   2.897  10.702   3.979
  605DIO     H933869   2.861  10.534   3.653
  605DIO    H1033870   2.721  10.449   3.715
  605DIO    H1133871   2.663  10.648   3.566
  605DIO    H1233872   2.705  10.876   3.668
  605DIO    H1333873   2.852  10.791   3.623
  605DIO    H1433874   2.572  10.691   3.857
  605DIO    H1533875   2.496  10.755   3.713
  605DIO    H1633876   2.509  10.461   3.795
  605DIO    H1733877   2.370  10.568   3.800
  605DIO    H1833878   2.379  10.590   3.548
  605DIO    H1933879   2.510  10.470   3.546
  605DIO    H2033880   2.350  10.425   3.605
  606DIO     F133881   6.884  -0.562   1.600
  606DIO     C133882   6.807  -0.452   1.605
  606DIO     C233883   6.663  -0.466   1.595
  606DIO     C333884   6.574  -0.348   1.598
  606DIO     C433885   6.639  -0.216   1.613
  606DIO     C533886   6.784  -0.204   1.622
  606DIO     F233887   6.839  -0.083   1.640
  606DIO     C633888   6.867  -0.322   1.619
  606DIO     F333889   7.001  -0.309   1.626
  606DIO     C733890   6.427  -0.360   1.588
  606DIO     C833891   6.350  -0.279   1.491
  606DIO     C933892   6.206  -0.290   1.481
  606DIO    C1033893   6.133  -0.375   1.574
  606DIO    C1133894   6.206  -0.462   1.665
  606DIO    C1233895   6.350  -0.452   1.673
  606DIO     F433896   6.415  -0.529   1.762
  606DIO     O133897   6.001  -0.400   1.543
  606DIO    C1333898   5.906  -0.416   1.644
  606DIO     O233899   5.905  -0.385   1.766
  606DIO    C1433900   5.777  -0.464   1.594
  606DIO    C1533901   5.711  -0.401   1.477
  606DIO     F533902   5.774  -0.303   1.409
  606DIO    C1633903   5.580  -0.442   1.430
  606DIO    C1733904   5.504  -0.544   1.501
  606DIO    C1833905   5.573  -0.619   1.605
  606DIO    C1933906   5.705  -0.579   1.651
  606DIO     F633907   5.767  -0.662   1.738
  606DIO    C2033908   5.364  -0.580   1.460
  606DIO     O333909   5.294  -0.474   1.393
  606DIO    C2133910   5.250  -0.373   1.483
  606DIO    C2233911   5.161  -0.431   1.592
  606DIO    C2333912   5.242  -0.541   1.661
  606DIO     O433913   5.286  -0.638   1.566
  606DIO    C2433914   5.029  -0.488   1.538
  606DIO    C2533915   4.938  -0.389   1.465
  606DIO    C2633916   4.899  -0.268   1.547
  606DIO     H133917   6.620  -0.565   1.586
  606DIO     H233918   6.579  -0.126   1.626
  606DIO     H333919   6.402  -0.213   1.422
  606DIO     H433920   6.151  -0.237   1.404
  606DIO     H533921   6.151  -0.529   1.730
  606DIO     H633922   5.542  -0.397   1.339
  606DIO     H733923   5.530  -0.710   1.646
  606DIO     H833924   5.373  -0.660   1.385
  606DIO     H933925   5.337  -0.322   1.527
  606DIO    H1033926   5.197  -0.297   1.425
  606DIO    H1133927   5.139  -0.353   1.666
  606DIO    H1233928   5.181  -0.593   1.735
  606DIO    H1333929   5.328  -0.499   1.714
  606DIO    H1433930   5.048  -0.573   1.471
  606DIO    H1533931   4.972  -0.530   1.623
  606DIO    H1633932   4.985  -0.357   1.371
  606DIO    H1733933   4.846  -0.442   1.435
  606DIO    H1833934   4.856  -0.297   1.643
  606DIO    H1933935   4.986  -0.204   1.567
  606DIO    H2033936   4.826  -0.208   1.493
  607DIO     F133937   3.964   1.769   0.621
  607DIO     C133938   3.886   1.749   0.512
  607DIO     C233939   3.742   1.743   0.528
  607DIO     C333940   3.653   1.719   0.412
  607DIO     C433941   3.719   1.705   0.280
  607DIO     C533942   3.863   1.711   0.267
  607DIO     F233943   3.919   1.701   0.145
  607DIO     C633944   3.947   1.733   0.382
  607DIO     F333945   4.081   1.738   0.369
  607DIO     C733946   3.507   1.712   0.427
  607DIO     C833947   3.430   1.599   0.369
  607DIO     C933948   3.285   1.592   0.383
  607DIO    C1033949   3.213   1.702   0.445
  607DIO    C1133950   3.285   1.810   0.509
  607DIO    C1233951   3.429   1.816   0.497
  607DIO     F433952   3.494   1.920   0.553
  607DIO     O133953   3.080   1.678   0.475
  607DIO    C1333954   2.986   1.780   0.469
  607DIO     O233955   2.985   1.892   0.411
  607DIO    C1433956   2.857   1.741   0.527
  607DIO    C1533957   2.791   1.613   0.491
  607DIO     F533958   2.853   1.525   0.411
  607DIO    C1633959   2.660   1.576   0.542
  607DIO    C1733960   2.584   1.668   0.626
  607DIO    C1833961   2.653   1.787   0.676
  607DIO    C1933962   2.784   1.823   0.626
  607DIO     F633963   2.847   1.926   0.688
  607DIO    C2033964   2.443   1.636   0.670
  607DIO     O333965   2.374   1.548   0.581
  607DIO    C2133966   2.330   1.613   0.462
  607DIO    C2233967   2.241   1.732   0.495
  607DIO    C2333968   2.322   1.823   0.587
  607DIO     O433969   2.366   1.752   0.702
  607DIO    C2433970   2.108   1.693   0.563
  607DIO    C2533971   2.018   1.599   0.483
  607DIO    C2633972   1.979   1.652   0.346
  607DIO     H133973   3.700   1.756   0.627
  607DIO     H233974   3.658   1.697   0.191
  607DIO     H333975   3.481   1.518   0.321
  607DIO     H433976   3.230   1.506   0.348
  607DIO     H533977   3.231   1.889   0.559
  607DIO     H633978   2.622   1.478   0.519
  607DIO     H733979   2.610   1.847   0.755
  607DIO     H833980   2.453   1.581   0.764
  607DIO     H933981   2.417   1.644   0.403
  607DIO    H1033982   2.277   1.539   0.402
  607DIO    H1133983   2.218   1.787   0.403
  607DIO    H1233984   2.261   1.908   0.622
  607DIO    H1333985   2.408   1.866   0.534
  607DIO    H1433986   2.128   1.646   0.660
  607DIO    H1533987   2.052   1.784   0.585
  607DIO    H1633988   2.065   1.500   0.472
  607DIO    H1733989   1.926   1.582   0.541
  607DIO    H1833990   1.935   1.752   0.353
  607DIO    H1933991   2.066   1.657   0.279
  607DIO    H2033992   1.905   1.586   0.299
  608DIO     F133993   8.176   3.563   4.397
  608DIO     C133994   8.098   3.453   4.386
  608DIO     C233995   7.954   3.467   4.396
  608DIO     C333996   7.865   3.349   4.386
  608DIO     C433997   7.931   3.218   4.363
  608DIO     C533998   8.075   3.207   4.353
  608DIO     F233999   8.131   3.087   4.328
  608DIO     C634000   8.159   3.324   4.364
  608DIO     F334001   8.293   3.312   4.356
  608DIO     C734002   7.719   3.360   4.397
  608DIO     C834003   7.642   3.274   4.489
  608DIO     C934004   7.497   3.285   4.499
  608DIO    C1034005   7.425   3.375   4.412
  608DIO    C1134006   7.497   3.467   4.326
  608DIO    C1234007   7.641   3.457   4.317
  608DIO     F434008   7.706   3.540   4.233
  608DIO     O134009   7.292   3.398   4.444
  608DIO    C1334010   7.198   3.420   4.344
  608DIO     O234011   7.197   3.396   4.220
  608DIO    C1434012   7.069   3.464   4.397
  608DIO    C1534013   7.002   3.394   4.510
  608DIO     F534014   7.065   3.293   4.572
  608DIO    C1634015   6.872   3.433   4.560
  608DIO    C1734016   6.796   3.539   4.495
  608DIO    C1834017   6.865   3.621   4.395
  608DIO    C1934018   6.996   3.583   4.347
  608DIO     F634019   7.059   3.671   4.265
  608DIO    C2034020   6.655   3.573   4.538
  608DIO     O334021   6.585   3.463   4.598
  608DIO    C2134022   6.542   3.367   4.502
  608DIO    C2234023   6.453   3.432   4.397
  608DIO    C2334024   6.534   3.546   4.335
  608DIO     O434025   6.578   3.636   4.436
  608DIO    C2434026   6.320   3.486   4.454
  608DIO    C2534027   6.229   3.383   4.522
  608DIO    C2634028   6.191   3.266   4.432
  608DIO     H134029   7.912   3.565   4.411
  608DIO     H234030   7.870   3.130   4.345
  608DIO     H334031   7.693   3.204   4.554
  608DIO     H434032   7.442   3.227   4.573
  608DIO     H534033   7.443   3.537   4.265
  608DIO     H634034   6.834   3.383   4.648
  608DIO     H734035   6.822   3.714   4.360
  608DIO     H834036   6.665   3.647   4.618
  608DIO     H934037   6.628   3.319   4.456
  608DIO    H1034038   6.489   3.288   4.556
  608DIO    H1134039   6.430   3.358   4.318
  608DIO    H1234040   6.473   3.602   4.264
  608DIO    H1334041   6.620   3.507   4.279
  608DIO    H1434042   6.340   3.566   4.526
  608DIO    H1534043   6.264   3.532   4.372
  608DIO    H1634044   6.277   3.344   4.613
  608DIO    H1734045   6.138   3.433   4.554
  608DIO    H1834046   6.147   3.301   4.338
  608DIO    H1934047   6.278   3.203   4.408
  608DIO    H2034048   6.117   3.203   4.482
  609DIO     F134049  10.749   6.641   7.587
  609DIO     C134050  10.671   6.550   7.525
  609DIO     C234051  10.527   6.557   7.541
  609DIO     C334052  10.438   6.458   7.476
  609DIO     C434053  10.504   6.353   7.394
  609DIO     C534054  10.648   6.348   7.380
  609DIO     F234055  10.703   6.254   7.301
  609DIO     C634056  10.732   6.446   7.445
  609DIO     F334057  10.866   6.440   7.432
  609DIO     C734058  10.292   6.463   7.491
  609DIO     C834059  10.215   6.343   7.531
  609DIO     C934060  10.070   6.348   7.546
  609DIO    C1034061   9.997   6.468   7.511
  609DIO    C1134062  10.070   6.590   7.479
  609DIO    C1234063  10.214   6.586   7.467
  609DIO     F434064  10.279   6.699   7.432
  609DIO     O134065   9.865   6.473   7.550
  609DIO    C1334066   9.771   6.540   7.473
  609DIO     O234067   9.770   6.578   7.353
  609DIO    C1434068   9.642   6.554   7.541
  609DIO    C1534069   9.575   6.439   7.607
  609DIO     F534070   9.638   6.320   7.613
  609DIO    C1634071   9.445   6.449   7.669
  609DIO    C1734072   9.369   6.574   7.662
  609DIO    C1834073   9.438   6.693   7.613
  609DIO    C1934074   9.569   6.683   7.552
  609DIO     F634075   9.632   6.799   7.522
  609DIO    C2034076   9.228   6.583   7.716
  609DIO     O334077   9.158   6.458   7.717
  609DIO    C2134078   9.115   6.418   7.587
  609DIO    C2234079   9.026   6.526   7.525
  609DIO    C2334080   9.107   6.655   7.525
  609DIO     O434081   9.151   6.687   7.656
  609DIO    C2434082   8.893   6.546   7.601
  609DIO    C2534083   8.802   6.423   7.612
  609DIO    C2634084   8.764   6.363   7.477
  609DIO     H134085  10.484   6.637   7.601
  609DIO     H234086  10.443   6.284   7.336
  609DIO     H334087  10.266   6.251   7.555
  609DIO     H434088  10.015   6.262   7.583
  609DIO     H534089  10.016   6.681   7.459
  609DIO     H634090   9.406   6.364   7.723
  609DIO     H734091   9.395   6.791   7.626
  609DIO     H834092   9.238   6.611   7.822
  609DIO     H934093   9.201   6.398   7.523
  609DIO    H1034094   9.062   6.323   7.597
  609DIO    H1134095   9.003   6.498   7.421
  609DIO    H1234096   9.045   6.739   7.489
  609DIO    H1334097   9.193   6.648   7.457
  609DIO    H1434098   8.913   6.582   7.703
  609DIO    H1534099   8.837   6.626   7.551
  609DIO    H1634100   8.850   6.346   7.674
  609DIO    H1734101   8.711   6.453   7.664
  609DIO    H1834102   8.720   6.439   7.411
  609DIO    H1934103   8.850   6.319   7.427
  609DIO    H2034104   8.690   6.283   7.492
  610DIO     F134105  10.205   6.028   6.497
  610DIO     C134106  10.127   5.985   6.396
  610DIO     C234107   9.983   5.983   6.412
  610DIO     C334108   9.894   5.935   6.304
  610DIO     C434109   9.960   5.892   6.178
  610DIO     C534110  10.104   5.896   6.164
  610DIO     F234111  10.160   5.860   6.047
  610DIO     C634112  10.188   5.942   6.272
  610DIO     F334113  10.322   5.944   6.258
  610DIO     C734114   9.748   5.931   6.320
  610DIO     C834115   9.671   5.809   6.288
  610DIO     C934116   9.526   5.805   6.303
  610DIO    C1034117   9.454   5.925   6.340
  610DIO    C1134118   9.526   6.044   6.379
  610DIO    C1234119   9.670   6.047   6.367
  610DIO     F434120   9.735   6.161   6.398
  610DIO     O134121   9.321   5.908   6.375
  610DIO    C1334122   9.227   6.006   6.346
  610DIO     O234123   9.226   6.103   6.266
  610DIO    C1434124   9.098   5.981   6.411
  610DIO    C1534125   9.032   5.848   6.404
  610DIO     F534126   9.094   5.745   6.344
  610DIO    C1634127   8.901   5.823   6.461
  610DIO    C1734128   8.825   5.931   6.523
  610DIO    C1834129   8.894   6.058   6.547
  610DIO    C1934130   9.025   6.082   6.491
  610DIO     F634131   9.088   6.196   6.529
  610DIO    C2034132   8.684   5.909   6.574
  610DIO     O334133   8.615   5.804   6.506
  610DIO    C2134134   8.571   5.842   6.376
  610DIO    C2234135   8.482   5.965   6.382
  610DIO    C2334136   8.563   6.074   6.453
  610DIO     O434137   8.607   6.030   6.580
  610DIO    C2434138   8.349   5.941   6.457
  610DIO    C2534139   8.259   5.832   6.399
  610DIO    C2634140   8.220   5.855   6.254
  610DIO     H134141   9.941   6.017   6.506
  610DIO     H234142   9.899   5.866   6.092
  610DIO     H334143   9.722   5.719   6.258
  610DIO     H434144   9.471   5.713   6.287
  610DIO     H534145   9.472   6.132   6.411
  610DIO     H634146   8.863   5.722   6.460
  610DIO     H734147   8.851   6.133   6.612
  610DIO     H834148   8.694   5.875   6.678
  610DIO     H934149   8.658   5.860   6.312
  610DIO    H1034150   8.518   5.756   6.332
  610DIO    H1134151   8.459   5.999   6.280
  610DIO    H1234152   8.502   6.164   6.468
  610DIO    H1334153   8.649   6.105   6.392
  610DIO    H1434154   8.369   5.916   6.562
  610DIO    H1534155   8.293   6.035   6.459
  610DIO    H1634156   8.306   5.734   6.409
  610DIO    H1734157   8.167   5.828   6.459
  610DIO    H1834158   8.176   5.954   6.240
  610DIO    H1934159   8.307   5.846   6.187
  610DIO    H2034160   8.146   5.780   6.222
  611DIO     F134161  10.843   8.291   6.188
  611DIO     C134162  10.766   8.376   6.258
  611DIO     C234163  10.622   8.370   6.242
  611DIO     C334164  10.533   8.463   6.316
  611DIO     C434165  10.598   8.560   6.407
  611DIO     C534166  10.743   8.563   6.421
  611DIO     F234167  10.798   8.650   6.509
  611DIO     C634168  10.826   8.472   6.347
  611DIO     F334169  10.960   8.477   6.361
  611DIO     C734170  10.387   8.460   6.300
  611DIO     C834171  10.309   8.583   6.271
  611DIO     C934172  10.165   8.580   6.256
  611DIO    C1034173  10.092   8.456   6.279
  611DIO    C1134174  10.165   8.332   6.300
  611DIO    C1234175  10.309   8.335   6.313
  611DIO     F434176  10.374   8.219   6.337
  611DIO     O134177   9.960   8.455   6.240
  611DIO    C1334178   9.865   8.381   6.311
  611DIO     O234179   9.865   8.332   6.427
  611DIO    C1434180   9.736   8.373   6.242
  611DIO    C1534181   9.670   8.494   6.187
  611DIO     F534182   9.733   8.613   6.191
  611DIO    C1634183   9.539   8.490   6.124
  611DIO    C1734184   9.463   8.365   6.120
  611DIO    C1834185   9.532   8.242   6.157
  611DIO    C1934186   9.664   8.247   6.219
  611DIO     F634187   9.726   8.128   6.238
  611DIO    C2034188   9.323   8.361   6.065
  611DIO     O334189   9.253   8.486   6.076
  611DIO    C2134190   9.209   8.513   6.208
  611DIO    C2234191   9.120   8.400   6.261
  611DIO    C2334192   9.201   8.271   6.249
  611DIO     O434193   9.245   8.251   6.115
  611DIO    C2434194   8.988   8.387   6.183
  611DIO    C2534195   8.897   8.510   6.184
  611DIO    C2634196   8.859   8.558   6.323
  611DIO     H134197  10.579   8.297   6.175
  611DIO     H234198  10.538   8.623   6.471
  611DIO     H334199  10.361   8.677   6.256
  611DIO     H434200  10.110   8.668   6.227
  611DIO     H534201  10.110   8.239   6.312
  611DIO     H634202   9.501   8.580   6.078
  611DIO     H734203   9.489   8.145   6.135
  611DIO     H834204   9.332   8.343   5.957
  611DIO     H934205   9.296   8.527   6.274
  611DIO    H1034206   9.157   8.608   6.208
  611DIO    H1134207   9.098   8.418   6.366
  611DIO    H1234208   9.140   8.185   6.277
  611DIO    H1334209   9.287   8.272   6.317
  611DIO    H1434210   9.008   8.360   6.078
  611DIO    H1534211   8.931   8.303   6.225
  611DIO    H1634212   8.944   8.593   6.129
  611DIO    H1734213   8.805   8.486   6.129
  611DIO    H1834214   8.815   8.476   6.382
  611DIO    H1934215   8.945   8.597   6.377
  611DIO    H2034216   8.785   8.638   6.316
  612DIO     F134217   3.359   0.234   4.452
  612DIO     C134218   3.281   0.140   4.394
  612DIO     C234219   3.137   0.148   4.409
  612DIO     C334220   3.048   0.046   4.349
  612DIO     C434221   3.114  -0.062   4.272
  612DIO     C534222   3.258  -0.067   4.258
  612DIO     F234223   3.314  -0.165   4.183
  612DIO     C634224   3.342   0.033   4.319
  612DIO     F334225   3.476   0.026   4.306
  612DIO     C734226   2.902   0.052   4.364
  612DIO     C834227   2.825  -0.066   4.409
  612DIO     C934228   2.680  -0.061   4.424
  612DIO    C1034229   2.608   0.058   4.384
  612DIO    C1134230   2.680   0.178   4.346
  612DIO    C1234231   2.824   0.174   4.335
  612DIO     F434232   2.889   0.285   4.295
  612DIO     O134233   2.475   0.065   4.423
  612DIO    C1334234   2.381   0.128   4.342
  612DIO     O234235   2.380   0.161   4.221
  612DIO    C1434236   2.252   0.145   4.410
  612DIO    C1534237   2.186   0.033   4.481
  612DIO     F534238   2.248  -0.086   4.493
  612DIO    C1634239   2.055   0.046   4.542
  612DIO    C1734240   1.979   0.170   4.530
  612DIO    C1834241   2.048   0.287   4.476
  612DIO    C1934242   2.179   0.274   4.416
  612DIO     F634243   2.242   0.389   4.381
  612DIO    C2034244   1.838   0.181   4.584
  612DIO     O334245   1.769   0.056   4.590
  612DIO    C2134246   1.725   0.012   4.462
  612DIO    C2234247   1.636   0.116   4.395
  612DIO    C2334248   1.717   0.246   4.389
  612DIO     O434249   1.761   0.283   4.519
  612DIO    C2434250   1.503   0.140   4.470
  612DIO    C2534251   1.413   0.017   4.486
  612DIO    C2634252   1.374  -0.048   4.355
  612DIO     H134253   3.095   0.230   4.466
  612DIO     H234254   3.053  -0.133   4.217
  612DIO     H334255   2.876  -0.157   4.437
  612DIO     H434256   2.625  -0.145   4.464
  612DIO     H534257   2.626   0.269   4.322
  612DIO     H634258   2.017  -0.037   4.600
  612DIO     H734259   2.005   0.386   4.485
  612DIO     H834260   1.848   0.214   4.688
  612DIO     H934261   1.812  -0.011   4.399
  612DIO    H1034262   1.672  -0.083   4.476
  612DIO    H1134263   1.613   0.084   4.293
  612DIO    H1234264   1.656   0.327   4.350
  612DIO    H1334265   1.803   0.235   4.322
  612DIO    H1434266   1.523   0.180   4.570
  612DIO    H1534267   1.447   0.217   4.417
  612DIO    H1634268   1.460  -0.057   4.552
  612DIO    H1734269   1.321   0.049   4.537
  612DIO    H1834270   1.330   0.024   4.286
  612DIO    H1934271   1.461  -0.095   4.306
  612DIO    H2034272   1.300  -0.127   4.372
  613DIO     F134273   1.270   8.372  -0.888
  613DIO     C134274   1.192   8.266  -0.916
  613DIO     C234275   1.048   8.278  -0.904
  613DIO     C334276   0.959   8.162  -0.931
  613DIO     C434277   1.025   8.036  -0.973
  613DIO     C534278   1.169   8.027  -0.985
  613DIO     F234279   1.224   7.912  -1.027
  613DIO     C634280   1.253   8.141  -0.957
  613DIO     F334281   1.386   8.131  -0.966
  613DIO     C734282   0.813   8.172  -0.919
  613DIO     C834283   0.736   8.073  -0.841
  613DIO     C934284   0.591   8.082  -0.829
  613DIO    C1034285   0.518   8.184  -0.902
  613DIO    C1134286   0.591   8.288  -0.973
  613DIO    C1234287   0.735   8.280  -0.983
  613DIO     F434288   0.800   8.374  -1.054
  613DIO     O134289   0.386   8.202  -0.867
  613DIO    C1334290   0.292   8.239  -0.962
  613DIO     O234291   0.291   8.234  -1.088
  613DIO    C1434292   0.163   8.275  -0.903
  613DIO    C1534293   0.096   8.189  -0.802
  613DIO     F534294   0.159   8.079  -0.755
  613DIO    C1634295  -0.035   8.220  -0.747
  613DIO    C1734296  -0.110   8.334  -0.795
  613DIO    C1834297  -0.042   8.430  -0.882
  613DIO    C1934298   0.090   8.400  -0.935
  613DIO     F634299   0.153   8.499  -1.003
  613DIO    C2034300  -0.251   8.361  -0.748
  613DIO     O334301  -0.321   8.244  -0.705
  613DIO    C2134302  -0.364   8.163  -0.813
  613DIO    C2234303  -0.453   8.243  -0.908
  613DIO    C2334304  -0.373   8.365  -0.952
  613DIO     O434305  -0.328   8.439  -0.839
  613DIO    C2434306  -0.586   8.288  -0.844
  613DIO    C2534307  -0.677   8.176  -0.792
  613DIO    C2634308  -0.715   8.074  -0.898
  613DIO     H134309   1.005   8.373  -0.874
  613DIO     H234310   0.964   7.952  -1.004
  613DIO     H334311   0.787   7.994  -0.787
  613DIO     H434312   0.536   8.015  -0.765
  613DIO     H534313   0.536   8.367  -1.023
  613DIO     H634314  -0.073   8.157  -0.667
  613DIO     H734315  -0.084   8.527  -0.903
  613DIO     H834316  -0.241   8.423  -0.658
  613DIO     H934317  -0.278   8.123  -0.867
  613DIO    H1034318  -0.417   8.077  -0.772
  613DIO    H1134319  -0.476   8.182  -0.997
  613DIO    H1234320  -0.434   8.431  -1.014
  613DIO    H1334321  -0.286   8.335  -1.013
  613DIO    H1434322  -0.566   8.356  -0.760
  613DIO    H1534323  -0.643   8.346  -0.918
  613DIO    H1634324  -0.629   8.124  -0.707
  613DIO    H1734325  -0.769   8.221  -0.752
  613DIO    H1834326  -0.759   8.122  -0.986
  613DIO    H1934327  -0.629   8.015  -0.931
  613DIO    H2034328  -0.789   8.004  -0.858
  614DIO     F134329   7.384   2.559   7.817
  614DIO     C134330   7.306   2.640   7.891
  614DIO     C234331   7.162   2.635   7.874
  614DIO     C334332   7.073   2.725   7.952
  614DIO     C434333   7.139   2.817   8.047
  614DIO     C534334   7.283   2.820   8.062
  614DIO     F234335   7.339   2.903   8.153
  614DIO     C634336   7.367   2.732   7.984
  614DIO     F334337   7.501   2.737   7.998
  614DIO     C734338   6.927   2.722   7.936
  614DIO     C834339   6.850   2.846   7.913
  614DIO     C934340   6.705   2.844   7.898
  614DIO    C1034341   6.633   2.719   7.915
  614DIO    C1134342   6.705   2.594   7.931
  614DIO    C1234343   6.849   2.597   7.943
  614DIO     F434344   6.914   2.480   7.963
  614DIO     O134345   6.500   2.720   7.876
  614DIO    C1334346   6.406   2.643   7.944
  614DIO     O234347   6.405   2.589   8.058
  614DIO    C1434348   6.277   2.638   7.874
  614DIO    C1534349   6.210   2.761   7.825
  614DIO     F534350   6.273   2.880   7.834
  614DIO    C1634351   6.080   2.759   7.762
  614DIO    C1734352   6.004   2.635   7.752
  614DIO    C1834353   6.073   2.511   7.784
  614DIO    C1934354   6.204   2.512   7.846
  614DIO     F634355   6.267   2.394   7.860
  614DIO    C2034356   5.863   2.633   7.697
  614DIO     O334357   5.793   2.757   7.713
  614DIO    C2134358   5.750   2.779   7.847
  614DIO    C2234359   5.661   2.664   7.894
  614DIO    C2334360   5.742   2.536   7.877
  614DIO     O434361   5.786   2.522   7.742
  614DIO    C2434362   5.528   2.654   7.816
  614DIO    C2534363   5.437   2.778   7.822
  614DIO    C2634364   5.399   2.819   7.963
  614DIO     H134365   7.120   2.565   7.804
  614DIO     H234366   7.078   2.878   8.114
  614DIO     H334367   6.901   2.941   7.901
  614DIO     H434368   6.650   2.933   7.872
  614DIO     H534369   6.651   2.501   7.939
  614DIO     H634370   6.042   2.851   7.720
  614DIO     H734371   6.030   2.415   7.758
  614DIO     H834372   5.873   2.620   7.589
  614DIO     H934373   5.836   2.790   7.913
  614DIO    H1034374   5.697   2.875   7.850
  614DIO    H1134375   5.638   2.677   8.001
  614DIO    H1234376   5.681   2.448   7.901
  614DIO    H1334377   5.828   2.534   7.945
  614DIO    H1434378   5.548   2.632   7.710
  614DIO    H1534379   5.472   2.568   7.855
  614DIO    H1634380   5.485   2.862   7.771
  614DIO    H1734381   5.346   2.755   7.766
  614DIO    H1834382   5.355   2.735   8.018
  614DIO    H1934383   5.486   2.856   8.019
  614DIO    H2034384   5.325   2.900   7.960
  615DIO     F134385   7.889   1.661   8.528
  615DIO     C134386   7.812   1.552   8.514
  615DIO     C234387   7.668   1.566   8.525
  615DIO     C334388   7.579   1.448   8.512
  615DIO     C434389   7.644   1.318   8.486
  615DIO     C534390   7.789   1.307   8.476
  615DIO     F234391   7.844   1.187   8.449
  615DIO     C634392   7.872   1.424   8.490
  615DIO     F334393   8.006   1.412   8.481
  615DIO     C734394   7.432   1.459   8.523
  615DIO     C834395   7.355   1.371   8.613
  615DIO     C934396   7.211   1.381   8.624
  615DIO    C1034397   7.138   1.473   8.539
  615DIO    C1134398   7.211   1.567   8.455
  615DIO    C1234399   7.355   1.558   8.446
  615DIO     F434400   7.420   1.642   8.363
  615DIO     O134401   7.006   1.495   8.571
  615DIO    C1334402   6.911   1.520   8.472
  615DIO     O234403   6.910   1.499   8.348
  615DIO    C1434404   6.782   1.563   8.526
  615DIO    C1534405   6.716   1.491   8.637
  615DIO     F534406   6.779   1.388   8.697
  615DIO    C1634407   6.585   1.528   8.688
  615DIO    C1734408   6.509   1.636   8.625
  615DIO    C1834409   6.578   1.719   8.527
  615DIO    C1934410   6.710   1.683   8.478
  615DIO     F634411   6.772   1.773   8.399
  615DIO    C2034412   6.369   1.669   8.669
  615DIO     O334413   6.299   1.557   8.727
  615DIO    C2134414   6.255   1.463   8.629
  615DIO    C2234415   6.166   1.531   8.525
  615DIO    C2334416   6.247   1.646   8.466
  615DIO     O434417   6.291   1.734   8.568
  615DIO    C2434418   6.034   1.583   8.583
  615DIO    C2534419   5.943   1.479   8.649
  615DIO    C2634420   5.904   1.364   8.556
  615DIO     H134421   7.625   1.664   8.542
  615DIO     H234422   7.584   1.230   8.467
  615DIO     H334423   7.407   1.300   8.677
  615DIO     H434424   7.156   1.322   8.696
  615DIO     H534425   7.156   1.639   8.395
  615DIO     H634426   6.547   1.476   8.775
  615DIO     H734427   6.535   1.813   8.494
  615DIO     H834428   6.378   1.741   8.751
  615DIO     H934429   6.342   1.417   8.581
  615DIO    H1034430   6.202   1.383   8.681
  615DIO    H1134431   6.144   1.459   8.445
  615DIO    H1234432   6.186   1.704   8.396
  615DIO    H1334433   6.333   1.609   8.409
  615DIO    H1434434   6.053   1.662   8.657
  615DIO    H1534435   5.977   1.632   8.502
  615DIO    H1634436   5.990   1.439   8.739
  615DIO    H1734437   5.851   1.529   8.682
  615DIO    H1834438   5.861   1.401   8.463
  615DIO    H1934439   5.991   1.302   8.531
  615DIO    H2034440   5.831   1.300   8.605
  616DIO     F134441   3.561   3.293   2.858
  616DIO     C134442   3.483   3.183   2.862
  616DIO     C234443   3.339   3.198   2.870
  616DIO     C334444   3.250   3.080   2.877
  616DIO     C434445   3.316   2.947   2.872
  616DIO     C534446   3.460   2.935   2.864
  616DIO     F234447   3.515   2.812   2.856
  616DIO     C634448   3.544   3.052   2.859
  616DIO     F334449   3.677   3.039   2.852
  616DIO     C734450   3.104   3.093   2.886
  616DIO     C834451   3.027   3.019   2.989
  616DIO     C934452   2.882   3.032   2.998
  616DIO    C1034453   2.809   3.109   2.899
  616DIO    C1134454   2.882   3.188   2.801
  616DIO    C1234455   3.026   3.178   2.794
  616DIO     F434456   3.091   3.248   2.699
  616DIO     O134457   2.677   3.136   2.928
  616DIO    C1334458   2.583   3.144   2.826
  616DIO     O234459   2.582   3.104   2.706
  616DIO    C1434460   2.454   3.196   2.872
  616DIO    C1534461   2.387   3.142   2.993
  616DIO     F534462   2.450   3.050   3.069
  616DIO    C1634463   2.256   3.187   3.037
  616DIO    C1734464   2.181   3.283   2.958
  616DIO    C1834465   2.249   3.350   2.849
  616DIO    C1934466   2.381   3.306   2.806
  616DIO     F634467   2.444   3.382   2.713
  616DIO    C2034468   2.040   3.322   2.997
  616DIO     O334469   1.970   3.222   3.071
  616DIO    C2134470   1.927   3.114   2.990
  616DIO    C2234471   1.838   3.163   2.876
  616DIO    C2334472   1.918   3.268   2.799
  616DIO     O434473   1.963   3.371   2.886
  616DIO    C2434474   1.705   3.225   2.925
  616DIO    C2534475   1.614   3.132   3.007
  616DIO    C2634476   1.576   3.004   2.934
  616DIO     H134477   3.296   3.297   2.872
  616DIO     H234478   3.255   2.857   2.867
  616DIO     H334479   3.078   2.959   3.063
  616DIO     H434480   2.827   2.985   3.079
  616DIO     H534481   2.827   3.250   2.731
  616DIO     H634482   2.218   3.150   3.132
  616DIO     H734483   2.207   3.437   2.801
  616DIO     H834484   2.050   3.407   3.065
  616DIO     H934485   2.013   3.060   2.950
  616DIO    H1034486   1.874   3.043   3.054
  616DIO    H1134487   1.815   3.080   2.809
  616DIO    H1234488   1.857   3.314   2.721
  616DIO    H1334489   2.005   3.222   2.749
  616DIO    H1434490   1.725   3.314   2.986
  616DIO    H1534491   1.648   3.259   2.838
  616DIO    H1634492   1.662   3.107   3.102
  616DIO    H1734493   1.522   3.187   3.032
  616DIO    H1834494   1.532   3.026   2.836
  616DIO    H1934495   1.662   2.939   2.919
  616DIO    H2034496   1.502   2.948   2.993
  617DIO     F134497   2.710  10.579   1.152
  617DIO     C134498   2.632  10.676   1.204
  617DIO     C234499   2.488  10.667   1.189
  617DIO     C334500   2.399  10.772   1.243
  617DIO     C434501   2.465  10.885   1.314
  617DIO     C534502   2.609  10.892   1.327
  617DIO     F234503   2.664  10.994   1.395
  617DIO     C634504   2.693  10.787   1.273
  617DIO     F334505   2.826  10.795   1.285
  617DIO     C734506   2.253  10.766   1.228
  617DIO     C834507   2.176  10.881   1.176
  617DIO     C934508   2.031  10.875   1.162
  617DIO    C1034509   1.958  10.758   1.209
  617DIO    C1134510   2.031  10.641   1.254
  617DIO    C1234511   2.175  10.646   1.266
  617DIO     F434512   2.240  10.538   1.313
  617DIO     O134513   1.826  10.749   1.171
  617DIO    C1334514   1.732  10.691   1.255
  617DIO     O234515   1.731  10.666   1.379
  617DIO    C1434516   1.603  10.670   1.189
  617DIO    C1534517   1.536  10.777   1.111
  617DIO     F534518   1.599  10.895   1.092
  617DIO    C1634519   1.405  10.760   1.051
  617DIO    C1734520   1.330  10.637   1.071
  617DIO    C1834521   1.398  10.524   1.132
  617DIO    C1934522   1.530  10.541   1.191
  617DIO     F634523   1.593  10.429   1.233
  617DIO    C2034524   1.189  10.622   1.018
  617DIO     O334525   1.119  10.747   1.004
  617DIO    C2134526   1.076  10.800   1.128
  617DIO    C2234527   0.987  10.700   1.202
  617DIO    C2334528   1.067  10.571   1.216
  617DIO     O434529   1.112  10.525   1.088
  617DIO    C2434530   0.854  10.671   1.128
  617DIO    C2534531   0.763  10.792   1.105
  617DIO    C2634532   0.725  10.867   1.232
  617DIO     H134533   2.445  10.581   1.138
  617DIO     H234534   2.404  10.960   1.363
  617DIO     H334535   2.227  10.970   1.142
  617DIO     H434536   1.976  10.955   1.116
  617DIO     H534537   1.976  10.552   1.284
  617DIO     H634538   1.367  10.840   0.988
  617DIO     H734539   1.356  10.425   1.130
  617DIO     H834540   1.199  10.583   0.916
  617DIO     H934541   1.162  10.826   1.190
  617DIO    H1034542   1.023  10.893   1.108
  617DIO    H1134543   0.964  10.738   1.302
  617DIO    H1234544   1.006  10.492   1.260
  617DIO    H1334545   1.154  10.586   1.282
  617DIO    H1434546   0.874  10.624   1.031
  617DIO    H1534547   0.797  10.597   1.187
  617DIO    H1634548   0.811  10.862   1.034
  617DIO    H1734549   0.671  10.758   1.055
  617DIO    H1834550   0.681  10.799   1.305
  617DIO    H1934551   0.811  10.916   1.277
  617DIO    H2034552   0.651  10.944   1.209
  618DIO     F134553   9.550   2.726   3.143
  618DIO     C134554   9.473   2.815   3.207
  618DIO     C234555   9.329   2.808   3.192
  618DIO     C334556   9.240   2.906   3.259
  618DIO     C434557   9.305   3.008   3.344
  618DIO     C534558   9.450   3.013   3.358
  618DIO     F234559   9.505   3.105   3.439
  618DIO     C634560   9.533   2.916   3.290
  618DIO     F334561   9.667   2.923   3.303
  618DIO     C734562   9.093   2.901   3.244
  618DIO     C834563   9.016   3.022   3.207
  618DIO     C934564   8.872   3.018   3.192
  618DIO    C1034565   8.799   2.896   3.224
  618DIO    C1134566   8.871   2.774   3.253
  618DIO    C1234567   9.016   2.777   3.265
  618DIO     F434568   9.080   2.664   3.297
  618DIO     O134569   8.667   2.892   3.185
  618DIO    C1334570   8.572   2.823   3.260
  618DIO     O234571   8.571   2.782   3.379
  618DIO    C1434572   8.443   2.811   3.192
  618DIO    C1534573   8.377   2.928   3.129
  618DIO     F534574   8.439   3.047   3.125
  618DIO    C1634575   8.246   2.919   3.067
  618DIO    C1734576   8.170   2.795   3.070
  618DIO    C1834577   8.239   2.674   3.116
  618DIO    C1934578   8.371   2.683   3.177
  618DIO     F634579   8.433   2.566   3.204
  618DIO    C2034580   8.030   2.787   3.016
  618DIO     O334581   7.960   2.912   3.018
  618DIO    C2134582   7.916   2.948   3.149
  618DIO    C2234583   7.827   2.839   3.209
  618DIO    C2334584   7.908   2.710   3.205
  618DIO     O434585   7.952   2.681   3.073
  618DIO    C2434586   7.694   2.821   3.132
  618DIO    C2534587   7.604   2.944   3.124
  618DIO    C2634588   7.565   3.000   3.260
  618DIO     H134589   9.286   2.730   3.130
  618DIO     H234590   9.245   3.076   3.403
  618DIO     H334591   9.068   3.115   3.185
  618DIO     H434592   8.816   3.104   3.157
  618DIO     H534593   8.817   2.682   3.271
  618DIO     H634594   8.208   3.006   3.015
  618DIO     H734595   8.196   2.576   3.101
  618DIO     H834596   8.039   2.762   2.909
  618DIO     H934597   8.003   2.966   3.213
  618DIO    H1034598   7.863   3.043   3.142
  618DIO    H1134599   7.805   2.864   3.313
  618DIO    H1234600   7.847   2.625   3.239
  618DIO    H1334601   7.994   2.715   3.273
  618DIO    H1434602   7.714   2.787   3.029
  618DIO    H1534603   7.638   2.740   3.180
  618DIO    H1634604   7.651   3.022   3.064
  618DIO    H1734605   7.512   2.916   3.071
  618DIO    H1834606   7.521   2.923   3.324
  618DIO    H1934607   7.652   3.043   3.312
  618DIO    H2034608   7.492   3.081   3.248
  619DIO     F134609   5.146   7.023   0.909
  619DIO     C134610   5.068   7.077   1.005
  619DIO     C234611   4.924   7.078   0.988
  619DIO     C334612   4.835   7.138   1.089
  619DIO     C434613   4.901   7.196   1.209
  619DIO     C534614   5.045   7.194   1.224
  619DIO     F234615   5.100   7.243   1.336
  619DIO     C634616   5.129   7.135   1.122
  619DIO     F334617   5.263   7.135   1.136
  619DIO     C734618   4.689   7.141   1.074
  619DIO     C834619   4.612   7.266   1.091
  619DIO     C934620   4.467   7.268   1.076
  619DIO    C1034621   4.394   7.144   1.053
  619DIO    C1134622   4.467   7.021   1.028
  619DIO    C1234623   4.611   7.019   1.041
  619DIO     F434624   4.676   6.903   1.023
  619DIO     O134625   4.262   7.157   1.016
  619DIO    C1334626   4.168   7.063   1.056
  619DIO     O234627   4.167   6.976   1.147
  619DIO    C1434628   4.039   7.081   0.989
  619DIO    C1534629   3.972   7.213   0.980
  619DIO     F534630   4.035   7.323   1.027
  619DIO    C1634631   3.842   7.231   0.920
  619DIO    C1734632   3.766   7.116   0.871
  619DIO    C1834633   3.835   6.988   0.863
  619DIO    C1934634   3.966   6.970   0.922
  619DIO     F634635   4.029   6.853   0.897
  619DIO    C2034636   3.625   7.132   0.819
  619DIO     O334637   3.555   7.245   0.873
  619DIO    C2134638   3.512   7.223   1.007
  619DIO    C2234639   3.423   7.099   1.016
  619DIO    C2334640   3.504   6.982   0.958
  619DIO     O434641   3.548   7.012   0.826
  619DIO    C2434642   3.290   7.114   0.938
  619DIO    C2534643   3.199   7.229   0.983
  619DIO    C2634644   3.161   7.224   1.130
  619DIO     H134645   4.881   7.033   0.899
  619DIO     H234646   4.840   7.232   1.291
  619DIO     H334647   4.663   7.359   1.110
  619DIO     H434648   4.412   7.361   1.080
  619DIO     H534649   4.413   6.930   1.006
  619DIO     H634650   3.803   7.332   0.909
  619DIO     H734651   3.792   6.905   0.807
  619DIO     H834652   3.635   7.154   0.712
  619DIO     H934653   3.598   7.212   1.073
  619DIO    H1034654   3.459   7.312   1.040
  619DIO    H1134655   3.400   7.078   1.121
  619DIO    H1234656   3.442   6.892   0.954
  619DIO    H1334657   3.590   6.959   1.022
  619DIO    H1434658   3.310   7.127   0.831
  619DIO    H1534659   3.234   7.020   0.948
  619DIO    H1634660   3.247   7.326   0.961
  619DIO    H1734661   3.108   7.226   0.923
  619DIO    H1834662   3.117   7.127   1.156
  619DIO    H1934663   3.247   7.241   1.195
  619DIO    H2034664   3.087   7.302   1.152
  620DIO     F134665   8.178   9.217   8.501
  620DIO     C134666   8.100   9.318   8.457
  620DIO     C234667   7.956   9.301   8.455
  620DIO     C334668   7.867   9.409   8.405
  620DIO     C434669   7.933   9.534   8.361
  620DIO     C534670   8.077   9.548   8.364
  620DIO     F234671   8.132   9.665   8.326
  620DIO     C634672   8.161   9.441   8.412
  620DIO     F334673   8.295   9.455   8.413
  620DIO     C734674   7.721   9.393   8.401
  620DIO     C834675   7.644   9.423   8.279
  620DIO     C934676   7.499   9.409   8.275
  620DIO    C1034677   7.426   9.373   8.395
  620DIO    C1134678   7.499   9.336   8.515
  620DIO    C1234679   7.643   9.348   8.518
  620DIO     F434680   7.708   9.318   8.633
  620DIO     O134681   7.294   9.338   8.379
  620DIO    C1334682   7.200   9.368   8.477
  620DIO     O234683   7.199   9.449   8.573
  620DIO    C1434684   7.071   9.302   8.452
  620DIO    C1534685   7.004   9.308   8.320
  620DIO     F534686   7.067   9.366   8.215
  620DIO    C1634687   6.874   9.250   8.295
  620DIO    C1734688   6.798   9.189   8.404
  620DIO    C1834689   6.867   9.168   8.531
  620DIO    C1934690   6.998   9.224   8.555
  620DIO     F634691   7.061   9.188   8.669
  620DIO    C2034692   6.657   9.139   8.383
  620DIO     O334693   6.587   9.205   8.277
  620DIO    C2134694   6.544   9.336   8.313
  620DIO    C2234695   6.455   9.331   8.437
  620DIO    C2334696   6.536   9.262   8.546
  620DIO     O434697   6.580   9.134   8.503
  620DIO    C2434698   6.322   9.256   8.413
  620DIO    C2534699   6.231   9.313   8.304
  620DIO    C2634700   6.193   9.458   8.324
  620DIO     H134701   7.913   9.208   8.490
  620DIO     H234702   7.872   9.620   8.333
  620DIO     H334703   7.695   9.452   8.188
  620DIO     H434704   7.444   9.423   8.183
  620DIO     H534705   7.445   9.304   8.603
  620DIO     H634706   6.835   9.250   8.194
  620DIO     H734707   6.824   9.104   8.607
  620DIO     H834708   6.667   9.035   8.350
  620DIO     H934709   6.630   9.400   8.330
  620DIO    H1034710   6.491   9.378   8.227
  620DIO    H1134711   6.432   9.434   8.469
  620DIO    H1234712   6.474   9.248   8.636
  620DIO    H1334713   6.622   9.323   8.576
  620DIO    H1434714   6.342   9.151   8.390
  620DIO    H1534715   6.266   9.256   8.507
  620DIO    H1634716   6.279   9.301   8.205
  620DIO    H1734717   6.140   9.252   8.300
  620DIO    H1834718   6.149   9.474   8.423
  620DIO    H1934719   6.279   9.524   8.314
  620DIO    H2034720   6.119   9.488   8.249
  621DIO     F134721   4.370  -0.498  10.143
  621DIO     C134722   4.292  -0.551  10.047
  621DIO     C234723   4.148  -0.551  10.064
  621DIO     C334724   4.059  -0.611   9.961
  621DIO     C434725   4.125  -0.667   9.841
  621DIO     C534726   4.269  -0.665   9.826
  621DIO     F234727   4.325  -0.713   9.713
  621DIO     C634728   4.353  -0.607   9.928
  621DIO     F334729   4.487  -0.607   9.914
  621DIO     C734730   3.913  -0.613   9.977
  621DIO     C834731   3.836  -0.738   9.958
  621DIO     C934732   3.691  -0.741   9.973
  621DIO    C1034733   3.619  -0.617   9.997
  621DIO    C1134734   3.691  -0.494  10.024
  621DIO    C1234735   3.835  -0.492  10.011
  621DIO     F434736   3.900  -0.376  10.031
  621DIO     O134737   3.486  -0.630  10.034
  621DIO    C1334738   3.392  -0.536   9.995
  621DIO     O234739   3.391  -0.448   9.906
  621DIO    C1434740   3.263  -0.554  10.063
  621DIO    C1534741   3.197  -0.686  10.069
  621DIO     F534742   3.259  -0.796  10.021
  621DIO    C1634743   3.066  -0.706  10.129
  621DIO    C1734744   2.990  -0.592  10.180
  621DIO    C1834745   3.059  -0.463  10.190
  621DIO    C1934746   3.190  -0.445  10.131
  621DIO     F634747   3.253  -0.328  10.157
  621DIO    C2034748   2.849  -0.608  10.232
  621DIO     O334749   2.780  -0.720  10.176
  621DIO    C2134750   2.736  -0.696  10.042
  621DIO    C2234751   2.647  -0.572  10.035
  621DIO    C2334752   2.728  -0.457  10.094
  621DIO     O434753   2.772  -0.488  10.226
  621DIO    C2434754   2.514  -0.589  10.113
  621DIO    C2534755   2.424  -0.703  10.066
  621DIO    C2634756   2.385  -0.696   9.919
  621DIO     H134757   4.106  -0.508  10.153
  621DIO     H234758   4.064  -0.702   9.758
  621DIO     H334759   3.887  -0.831   9.938
  621DIO     H434760   3.636  -0.833   9.968
  621DIO     H534761   3.637  -0.404  10.047
  621DIO     H634762   3.028  -0.806  10.139
  621DIO     H734763   3.016  -0.381  10.246
  621DIO     H834764   2.859  -0.631  10.339
  621DIO     H934765   2.823  -0.685   9.976
  621DIO    H1034766   2.683  -0.785  10.008
  621DIO    H1134767   2.624  -0.550   9.931
  621DIO    H1234768   2.667  -0.366  10.100
  621DIO    H1334769   2.814  -0.433  10.030
  621DIO    H1434770   2.534  -0.602  10.220
  621DIO    H1534771   2.458  -0.495  10.104
  621DIO    H1634772   2.471  -0.800  10.087
  621DIO    H1734773   2.332  -0.701  10.127
  621DIO    H1834774   2.341  -0.599   9.895
  621DIO    H1934775   2.472  -0.712   9.855
  621DIO    H2034776   2.311  -0.773   9.896
  622DIO     F134777   8.735   4.938   8.199
  622DIO     C134778   8.657   4.847   8.260
  622DIO     C234779   8.513   4.864   8.259
  622DIO     C334780   8.424   4.767   8.326
  622DIO     C434781   8.490   4.651   8.392
  622DIO     C534782   8.634   4.637   8.392
  622DIO     F234783   8.689   4.528   8.450
  622DIO     C634784   8.718   4.733   8.325
  622DIO     F334785   8.851   4.719   8.327
  622DIO     C734786   8.278   4.783   8.328
  622DIO     C834787   8.201   4.775   8.454
  622DIO     C934788   8.056   4.790   8.455
  622DIO    C1034789   7.983   4.803   8.330
  622DIO    C1134790   8.056   4.819   8.205
  622DIO    C1234791   8.200   4.806   8.204
  622DIO     F434792   8.265   4.816   8.087
  622DIO     O134793   7.851   4.841   8.340
  622DIO    C1334794   7.757   4.794   8.249
  622DIO     O234795   7.756   4.697   8.169
  622DIO    C1434796   7.627   4.863   8.262
  622DIO    C1534797   7.561   4.881   8.393
  622DIO     F534798   7.624   4.842   8.506
  622DIO    C1634799   7.430   4.942   8.407
  622DIO    C1734800   7.355   4.983   8.289
  622DIO    C1834801   7.423   4.982   8.160
  622DIO    C1934802   7.555   4.922   8.147
  622DIO     F634803   7.617   4.937   8.028
  622DIO    C2034804   7.214   5.036   8.301
  622DIO     O334805   7.144   4.990   8.417
  622DIO    C2134806   7.100   4.855   8.405
  622DIO    C2234807   7.012   4.837   8.282
  622DIO    C2334808   7.092   4.886   8.162
  622DIO     O434809   7.137   5.020   8.181
  622DIO    C2434810   6.879   4.916   8.291
  622DIO    C2534811   6.788   4.879   8.410
  622DIO    C2634812   6.750   4.732   8.415
  622DIO     H134813   8.470   4.949   8.207
  622DIO     H234814   8.429   4.572   8.435
  622DIO     H334815   8.252   4.762   8.548
  622DIO     H434816   8.001   4.792   8.548
  622DIO     H534817   8.001   4.834   8.113
  622DIO     H634818   7.392   4.960   8.506
  622DIO     H734819   7.380   5.031   8.074
  622DIO     H834820   7.224   5.144   8.314
  622DIO     H934821   7.187   4.788   8.399
  622DIO    H1034822   7.048   4.828   8.497
  622DIO    H1134823   6.989   4.731   8.268
  622DIO    H1234824   7.031   4.884   8.071
  622DIO    H1334825   7.178   4.820   8.143
  622DIO    H1434826   6.899   5.023   8.296
  622DIO    H1534827   6.822   4.899   8.199
  622DIO    H1634828   6.835   4.908   8.504
  622DIO    H1734829   6.696   4.939   8.402
  622DIO    H1834830   6.706   4.699   8.320
  622DIO    H1934831   6.836   4.669   8.437
  622DIO    H2034832   6.676   4.716   8.494
  623DIO     F134833   3.536   4.959   0.386
  623DIO     C134834   3.458   4.980   0.278
  623DIO     C234835   3.314   4.969   0.291
  623DIO     C334836   3.225   4.989   0.174
  623DIO     C434837   3.291   5.023   0.046
  623DIO     C534838   3.435   5.034   0.036
  623DIO     F234839   3.490   5.069  -0.082
  623DIO     C634840   3.519   5.013   0.152
  623DIO     F334841   3.652   5.022   0.141
  623DIO     C734842   3.079   4.977   0.185
  623DIO     C834843   3.002   4.893   0.091
  623DIO     C934844   2.857   4.881   0.101
  623DIO    C1034845   2.784   4.961   0.198
  623DIO    C1134846   2.857   5.038   0.297
  623DIO    C1234847   3.001   5.048   0.289
  623DIO     F434848   3.066   5.125   0.378
  623DIO     O134849   2.652   4.927   0.218
  623DIO    C1334850   2.558   5.024   0.249
  623DIO     O234851   2.557   5.150   0.236
  623DIO    C1434852   2.429   4.967   0.288
  623DIO    C1534853   2.362   4.861   0.209
  623DIO     F534854   2.425   4.808   0.102
  623DIO    C1634855   2.231   4.808   0.243
  623DIO    C1734856   2.156   4.864   0.354
  623DIO    C1834857   2.224   4.956   0.444
  623DIO    C1934858   2.356   5.008   0.411
  623DIO     F634859   2.419   5.081   0.506
  623DIO    C2034860   2.015   4.818   0.384
  623DIO     O334861   1.945   4.768   0.270
  623DIO    C2134862   1.902   4.871   0.182
  623DIO    C2234863   1.813   4.971   0.256
  623DIO    C2334864   1.893   5.022   0.375
  623DIO     O434865   1.938   4.914   0.457
  623DIO    C2434866   1.680   4.909   0.305
  623DIO    C2534867   1.589   4.851   0.196
  623DIO    C2634868   1.551   4.950   0.088
  623DIO     H134869   3.271   4.945   0.388
  623DIO     H234870   3.230   5.049  -0.040
  623DIO     H334871   3.053   4.834   0.016
  623DIO     H434872   2.802   4.813   0.037
  623DIO     H534873   2.802   5.093   0.373
  623DIO     H634874   2.193   4.725   0.185
  623DIO     H734875   2.182   4.983   0.540
  623DIO     H834876   2.025   4.732   0.452
  623DIO     H934877   1.988   4.922   0.139
  623DIO    H1034878   1.849   4.825   0.099
  623DIO    H1134879   1.790   5.055   0.190
  623DIO    H1234880   1.832   5.088   0.438
  623DIO    H1334881   1.980   5.081   0.341
  623DIO    H1434882   1.700   4.830   0.378
  623DIO    H1534883   1.623   4.986   0.358
  623DIO    H1634884   1.637   4.763   0.150
  623DIO    H1734885   1.497   4.814   0.244
  623DIO    H1834886   1.507   5.041   0.131
  623DIO    H1934887   1.637   4.979   0.028
  623DIO    H2034888   1.477   4.905   0.020
  624DIO     F134889   3.744   1.163  -0.040
  624DIO     C134890   3.667   1.272  -0.059
  624DIO     C234891   3.523   1.256  -0.065
  624DIO     C334892   3.434   1.372  -0.087
  624DIO     C434893   3.499   1.504  -0.100
  624DIO     C534894   3.644   1.517  -0.093
  624DIO     F234895   3.699   1.640  -0.102
  624DIO     C634896   3.727   1.402  -0.072
  624DIO     F334897   3.861   1.415  -0.068
  624DIO     C734898   3.288   1.358  -0.094
  624DIO     C834899   3.210   1.417  -0.206
  624DIO     C934900   3.066   1.403  -0.213
  624DIO    C1034901   2.993   1.340  -0.105
  624DIO    C1134902   3.066   1.275   0.003
  624DIO    C1234903   3.210   1.286   0.008
  624DIO     F434904   3.275   1.229   0.112
  624DIO     O134905   2.861   1.310  -0.130
  624DIO    C1334906   2.766   1.315  -0.027
  624DIO     O234907   2.766   1.371   0.085
  624DIO    C1434908   2.637   1.258  -0.067
  624DIO    C1534909   2.571   1.295  -0.194
  624DIO     F534910   2.634   1.376  -0.282
  624DIO    C1634911   2.440   1.245  -0.232
  624DIO    C1734912   2.364   1.160  -0.141
  624DIO    C1834913   2.433   1.108  -0.023
  624DIO    C1934914   2.565   1.157   0.014
  624DIO     F634915   2.627   1.094   0.116
  624DIO    C2034916   2.224   1.116  -0.173
  624DIO     O334917   2.154   1.205  -0.261
  624DIO    C2134918   2.110   1.323  -0.194
  624DIO    C2234919   2.021   1.289  -0.075
  624DIO    C2334920   2.102   1.196   0.015
  624DIO     O434921   2.146   1.082  -0.058
  624DIO    C2434922   1.889   1.222  -0.116
  624DIO    C2534923   1.798   1.303  -0.209
  624DIO    C2634924   1.760   1.439  -0.153
  624DIO     H134925   3.480   1.157  -0.053
  624DIO     H234926   3.439   1.594  -0.106
  624DIO     H334927   3.262   1.467  -0.287
  624DIO     H434928   3.011   1.439  -0.299
  624DIO     H534929   3.011   1.223   0.080
  624DIO     H634930   2.402   1.269  -0.330
  624DIO     H734931   2.390   1.028   0.036
  624DIO     H834932   2.233   1.022  -0.230
  624DIO     H934933   2.197   1.382  -0.162
  624DIO    H1034934   2.058   1.385  -0.267
  624DIO    H1134935   1.999   1.381  -0.019
  624DIO    H1234936   2.041   1.160   0.099
  624DIO    H1334937   2.188   1.248   0.058
  624DIO    H1434938   1.909   1.125  -0.164
  624DIO    H1534939   1.832   1.199  -0.024
  624DIO    H1634940   1.845   1.315  -0.307
  624DIO    H1734941   1.706   1.246  -0.226
  624DIO    H1834942   1.716   1.431  -0.054
  624DIO    H1934943   1.846   1.506  -0.147
  624DIO    H2034944   1.686   1.487  -0.219
  625DIO     F134945  10.387   4.007   5.964
  625DIO     C134946  10.309   3.917   5.901
  625DIO     C234947  10.165   3.924   5.916
  625DIO     C334948  10.076   3.826   5.850
  625DIO     C434949  10.142   3.723   5.766
  625DIO     C534950  10.286   3.719   5.752
  625DIO     F234951  10.341   3.626   5.671
  625DIO     C634952  10.370   3.815   5.818
  625DIO     F334953  10.504   3.809   5.806
  625DIO     C734954   9.930   3.831   5.865
  625DIO     C834955   9.853   3.710   5.903
  625DIO     C934956   9.708   3.715   5.917
  625DIO    C1034957   9.635   3.836   5.885
  625DIO    C1134958   9.708   3.958   5.855
  625DIO    C1234959   9.852   3.954   5.843
  625DIO     F434960   9.917   4.068   5.810
  625DIO     O134961   9.503   3.840   5.924
  625DIO    C1334962   9.409   3.909   5.848
  625DIO     O234963   9.408   3.949   5.729
  625DIO    C1434964   9.280   3.921   5.917
  625DIO    C1534965   9.213   3.805   5.980
  625DIO     F534966   9.276   3.686   5.985
  625DIO    C1634967   9.083   3.814   6.042
  625DIO    C1734968   9.007   3.939   6.038
  625DIO    C1834969   9.076   4.058   5.991
  625DIO    C1934970   9.207   4.049   5.930
  625DIO     F634971   9.270   4.166   5.903
  625DIO    C2034972   8.866   3.947   6.092
  625DIO     O334973   8.796   3.822   6.090
  625DIO    C2134974   8.753   3.785   5.960
  625DIO    C2234975   8.664   3.893   5.900
  625DIO    C2334976   8.745   4.023   5.902
  625DIO     O434977   8.789   4.052   6.034
  625DIO    C2434978   8.531   3.912   5.976
  625DIO    C2534979   8.440   3.789   5.985
  625DIO    C2634980   8.402   3.731   5.849
  625DIO     H134981  10.122   4.003   5.978
  625DIO     H234982  10.081   3.655   5.707
  625DIO     H334983   9.904   3.618   5.925
  625DIO     H434984   9.653   3.629   5.953
  625DIO     H534985   9.654   4.050   5.837
  625DIO     H634986   9.044   3.727   6.095
  625DIO     H734987   9.033   4.157   6.006
  625DIO     H834988   8.876   3.973   6.198
  625DIO     H934989   8.839   3.766   5.896
  625DIO    H1034990   8.700   3.689   5.968
  625DIO    H1134991   8.641   3.868   5.796
  625DIO    H1234992   8.683   4.107   5.868
  625DIO    H1334993   8.831   4.016   5.835
  625DIO    H1434994   8.551   3.946   6.079
  625DIO    H1534995   8.475   3.993   5.928
  625DIO    H1634996   8.488   3.711   6.045
  625DIO    H1734997   8.349   3.817   6.038
  625DIO    H1834998   8.358   3.808   5.785
  625DIO    H1934999   8.488   3.688   5.798
  625DIO    H2035000   8.328   3.652   5.862
  626DIO     F135001   5.736   2.189   5.475
  626DIO     C135002   5.658   2.299   5.480
  626DIO     C235003   5.514   2.285   5.471
  626DIO     C335004   5.425   2.403   5.475
  626DIO     C435005   5.491   2.535   5.491
  626DIO     C535006   5.635   2.547   5.500
  626DIO     F235007   5.691   2.668   5.518
  626DIO     C635008   5.719   2.429   5.495
  626DIO     F335009   5.853   2.441   5.503
  626DIO     C735010   5.279   2.391   5.464
  626DIO     C835011   5.202   2.473   5.368
  626DIO     C935012   5.057   2.461   5.358
  626DIO    C1035013   4.985   2.376   5.450
  626DIO    C1135014   5.057   2.289   5.541
  626DIO    C1235015   5.201   2.299   5.549
  626DIO     F435016   5.266   2.221   5.638
  626DIO     O135017   4.852   2.352   5.419
  626DIO    C1335018   4.758   2.335   5.520
  626DIO     O235019   4.757   2.365   5.643
  626DIO    C1435020   4.629   2.287   5.469
  626DIO    C1535021   4.563   2.351   5.353
  626DIO     F535022   4.625   2.450   5.286
  626DIO    C1635023   4.432   2.311   5.306
  626DIO    C1735024   4.356   2.208   5.376
  626DIO    C1835025   4.425   2.132   5.480
  626DIO    C1935026   4.556   2.172   5.526
  626DIO     F635027   4.619   2.088   5.612
  626DIO    C2035028   4.215   2.172   5.335
  626DIO     O335029   4.146   2.278   5.269
  626DIO    C2135030   4.102   2.379   5.359
  626DIO    C2235031   4.013   2.320   5.468
  626DIO    C2335032   4.094   2.209   5.536
  626DIO     O435033   4.138   2.114   5.440
  626DIO    C2435034   3.880   2.263   5.414
  626DIO    C2535035   3.790   2.363   5.341
  626DIO    C2635036   3.751   2.484   5.424
  626DIO     H135037   5.472   2.186   5.461
  626DIO     H235038   5.430   2.624   5.504
  626DIO     H335039   5.253   2.539   5.300
  626DIO     H435040   5.002   2.515   5.282
  626DIO     H535041   5.003   2.221   5.606
  626DIO     H635042   4.394   2.356   5.215
  626DIO     H735043   4.382   2.041   5.520
  626DIO     H835044   4.225   2.093   5.259
  626DIO     H935045   4.189   2.430   5.404
  626DIO    H1035046   4.049   2.455   5.301
  626DIO    H1135047   3.990   2.397   5.543
  626DIO    H1235048   4.033   2.157   5.610
  626DIO    H1335049   4.180   2.251   5.590
  626DIO    H1435050   3.900   2.179   5.346
  626DIO    H1535051   3.824   2.221   5.498
  626DIO    H1635052   3.837   2.396   5.248
  626DIO    H1735053   3.698   2.310   5.311
  626DIO    H1835054   3.707   2.453   5.520
  626DIO    H1935055   3.838   2.547   5.445
  626DIO    H2035056   3.677   2.544   5.371
  627DIO     F135057   6.583   8.255   7.605
  627DIO     C135058   6.505   8.342   7.538
  627DIO     C235059   6.361   8.325   7.540
  627DIO     C335060   6.272   8.418   7.466
  627DIO     C435061   6.338   8.528   7.393
  627DIO     C535062   6.482   8.543   7.392
  627DIO     F235063   6.537   8.647   7.328
  627DIO     C635064   6.566   8.451   7.465
  627DIO     F335065   6.699   8.465   7.463
  627DIO     C735066   6.126   8.402   7.466
  627DIO     C835067   6.049   8.401   7.340
  627DIO     C935068   5.904   8.386   7.339
  627DIO    C1035069   5.831   8.381   7.465
  627DIO    C1135070   5.904   8.373   7.591
  627DIO    C1235071   6.048   8.386   7.590
  627DIO     F435072   6.113   8.384   7.709
  627DIO     O135073   5.699   8.342   7.457
  627DIO    C1335074   5.605   8.395   7.545
  627DIO     O235075   5.604   8.497   7.619
  627DIO    C1435076   5.476   8.326   7.537
  627DIO    C1535077   5.409   8.299   7.407
  627DIO     F535078   5.472   8.330   7.292
  627DIO    C1635079   5.278   8.237   7.398
  627DIO    C1735080   5.203   8.205   7.518
  627DIO    C1835081   5.271   8.214   7.646
  627DIO    C1935082   5.403   8.274   7.655
  627DIO     F635083   5.466   8.266   7.775
  627DIO    C2035084   5.062   8.150   7.509
  627DIO     O335085   4.992   8.189   7.390
  627DIO    C2135086   4.949   8.324   7.394
  627DIO    C2235087   4.860   8.350   7.515
  627DIO    C2335088   4.940   8.309   7.638
  627DIO     O435089   4.985   8.174   7.628
  627DIO    C2435090   4.727   8.271   7.511
  627DIO    C2535091   4.636   8.300   7.390
  627DIO    C2635092   4.598   8.446   7.376
  627DIO     H135093   6.318   8.243   7.597
  627DIO     H235094   6.277   8.605   7.345
  627DIO     H335095   6.100   8.407   7.245
  627DIO     H435096   5.849   8.377   7.247
  627DIO     H535097   5.849   8.364   7.684
  627DIO     H635098   5.240   8.213   7.299
  627DIO     H735099   5.229   8.170   7.736
  627DIO     H835100   5.072   8.041   7.503
  627DIO     H935101   5.035   8.391   7.395
  627DIO    H1035102   4.896   8.345   7.300
  627DIO    H1135103   4.837   8.457   7.522
  627DIO    H1235104   4.879   8.317   7.729
  627DIO    H1335105   5.027   8.376   7.652
  627DIO    H1435106   4.747   8.163   7.513
  627DIO    H1535107   4.670   8.294   7.602
  627DIO    H1635108   4.684   8.265   7.298
  627DIO    H1735109   4.544   8.240   7.402
  627DIO    H1835110   4.554   8.485   7.468
  627DIO    H1935111   4.684   8.508   7.350
  627DIO    H2035112   4.524   8.457   7.295
  628DIO     F135113   7.242   6.635   3.936
  628DIO     C135114   7.164   6.526   3.946
  628DIO     C235115   7.020   6.541   3.953
  628DIO     C335116   6.931   6.423   3.966
  628DIO     C435117   6.997   6.290   3.968
  628DIO     C535118   7.141   6.278   3.961
  628DIO     F235119   7.197   6.155   3.959
  628DIO     C635120   7.225   6.395   3.949
  628DIO     F335121   7.359   6.382   3.943
  628DIO     C735122   6.785   6.437   3.975
  628DIO     C835123   6.708   6.369   4.081
  628DIO     C935124   6.563   6.382   4.090
  628DIO    C1035125   6.491   6.454   3.986
  628DIO    C1135126   6.563   6.528   3.884
  628DIO    C1235127   6.707   6.517   3.878
  628DIO     F435128   6.772   6.582   3.779
  628DIO     O135129   6.358   6.482   4.013
  628DIO    C1335130   6.264   6.485   3.911
  628DIO     O235131   6.263   6.438   3.794
  628DIO    C1435132   6.135   6.539   3.955
  628DIO    C1535133   6.069   6.492   4.079
  628DIO     F535134   6.131   6.404   4.160
  628DIO    C1635135   5.938   6.539   4.120
  628DIO    C1735136   5.862   6.631   4.036
  628DIO    C1835137   5.931   6.692   3.923
  628DIO    C1935138   6.062   6.646   3.883
  628DIO     F635139   6.125   6.717   3.786
  628DIO    C2035140   5.721   6.672   4.073
  628DIO     O335141   5.652   6.576   4.152
  628DIO    C2135142   5.608   6.463   4.077
  628DIO    C2235143   5.519   6.507   3.961
  628DIO    C2335144   5.600   6.607   3.878
  628DIO     O435145   5.644   6.715   3.960
  628DIO    C2435146   5.386   6.571   4.007
  628DIO    C2535147   5.296   6.482   4.093
  628DIO    C2635148   5.257   6.351   4.027
  628DIO     H135149   6.978   6.641   3.949
  628DIO     H235150   6.936   6.200   3.968
  628DIO     H335151   6.759   6.313   4.158
  628DIO     H435152   6.508   6.340   4.172
  628DIO     H535153   6.509   6.585   3.811
  628DIO     H635154   5.900   6.507   4.217
  628DIO     H735155   5.888   6.776   3.871
  628DIO     H835156   5.731   6.761   4.137
  628DIO     H935157   5.695   6.407   4.040
  628DIO    H1035158   5.555   6.396   4.145
  628DIO    H1135159   5.496   6.420   3.898
  628DIO    H1235160   5.539   6.649   3.798
  628DIO    H1335161   5.686   6.559   3.831
  628DIO    H1435162   5.406   6.663   4.062
  628DIO    H1535163   5.330   6.601   3.917
  628DIO    H1635164   5.343   6.462   4.190
  628DIO    H1735165   5.204   6.538   4.115
  628DIO    H1835166   5.213   6.368   3.928
  628DIO    H1935167   5.344   6.285   4.016
  628DIO    H2035168   5.183   6.298   4.088
  629DIO     F135169   8.626   0.425   0.684
  629DIO     C135170   8.549   0.530   0.717
  629DIO     C235171   8.405   0.518   0.704
  629DIO     C335172   8.316   0.632   0.737
  629DIO     C435173   8.381   0.756   0.785
  629DIO     C535174   8.526   0.765   0.797
  629DIO     F235175   8.581   0.878   0.845
  629DIO     C635176   8.609   0.652   0.763
  629DIO     F335177   8.743   0.662   0.774
  629DIO     C735178   8.169   0.623   0.724
  629DIO     C835179   8.092   0.726   0.651
  629DIO     C935180   7.948   0.717   0.638
  629DIO    C1035181   7.875   0.612   0.706
  629DIO    C1135182   7.947   0.505   0.773
  629DIO    C1235183   8.092   0.512   0.783
  629DIO     F435184   8.156   0.415   0.850
  629DIO     O135185   7.743   0.596   0.671
  629DIO    C1335186   7.648   0.554   0.764
  629DIO     O235187   7.647   0.553   0.890
  629DIO    C1435188   7.519   0.521   0.703
  629DIO    C1535189   7.453   0.612   0.607
  629DIO     F535190   7.515   0.724   0.565
  629DIO    C1635191   7.322   0.584   0.550
  629DIO    C1735192   7.246   0.467   0.593
  629DIO    C1835193   7.315   0.367   0.675
  629DIO    C1935194   7.447   0.395   0.730
  629DIO     F635195   7.509   0.293   0.792
  629DIO    C2035196   7.106   0.442   0.544
  629DIO     O335197   7.036   0.562   0.507
  629DIO    C2135198   6.992   0.637   0.619
  629DIO    C2235199   6.903   0.553   0.710
  629DIO    C2335200   6.984   0.429   0.748
  629DIO     O435201   7.028   0.360   0.632
  629DIO    C2435202   6.770   0.511   0.643
  629DIO    C2535203   6.680   0.626   0.597
  629DIO    C2635204   6.641   0.722   0.708
  629DIO     H135205   8.362   0.425   0.670
  629DIO     H235206   8.321   0.839   0.820
  629DIO     H335207   8.144   0.807   0.601
  629DIO     H435208   7.892   0.788   0.578
  629DIO     H535209   7.893   0.424   0.819
  629DIO     H635210   7.284   0.650   0.473
  629DIO     H735211   7.272   0.269   0.691
  629DIO     H835212   7.115   0.385   0.451
  629DIO     H935213   7.079   0.675   0.674
  629DIO    H1035214   6.939   0.725   0.582
  629DIO    H1135215   6.881   0.609   0.801
  629DIO    H1235216   6.923   0.360   0.807
  629DIO    H1335217   7.070   0.456   0.811
  629DIO    H1435218   6.790   0.447   0.557
  629DIO    H1535219   6.714   0.450   0.715
  629DIO    H1635220   6.727   0.681   0.515
  629DIO    H1735221   6.588   0.582   0.556
  629DIO    H1835222   6.597   0.669   0.793
  629DIO    H1935223   6.728   0.779   0.743
  629DIO    H2035224   6.568   0.794   0.671
  630DIO     F135225   1.333   0.047   7.064
  630DIO     C135226   1.256   0.156   7.049
  630DIO     C235227   1.112   0.141   7.043
  630DIO     C335228   1.023   0.258   7.024
  630DIO     C435229   1.088   0.390   7.016
  630DIO     C535230   1.233   0.403   7.022
  630DIO     F235231   1.288   0.526   7.018
  630DIO     C635232   1.316   0.287   7.040
  630DIO     F335233   1.450   0.300   7.045
  630DIO     C735234   0.877   0.244   7.016
  630DIO     C835235   0.799   0.306   6.906
  630DIO     C935236   0.655   0.293   6.899
  630DIO    C1035237   0.582   0.226   7.005
  630DIO    C1135238   0.655   0.158   7.111
  630DIO    C1235239   0.799   0.169   7.117
  630DIO     F435240   0.864   0.108   7.219
  630DIO     O135241   0.450   0.197   6.980
  630DIO    C1335242   0.355   0.199   7.082
  630DIO     O235243   0.355   0.251   7.197
  630DIO    C1435244   0.226   0.143   7.041
  630DIO    C1535245   0.160   0.184   6.915
  630DIO     F535246   0.223   0.268   6.830
  630DIO    C1635247   0.029   0.135   6.876
  630DIO    C1735248  -0.047   0.047   6.964
  630DIO    C1835249   0.022  -0.008   7.080
  630DIO    C1935250   0.154   0.040   7.118
  630DIO     F635251   0.216  -0.027   7.218
  630DIO    C2035252  -0.187   0.004   6.930
  630DIO     O335253  -0.257   0.097   6.846
  630DIO    C2135254  -0.301   0.213   6.916
  630DIO    C2235255  -0.390   0.175   7.034
  630DIO    C2335256  -0.309   0.078   7.120
  630DIO     O435257  -0.265  -0.033   7.044
  630DIO    C2435258  -0.522   0.109   6.991
  630DIO    C2535259  -0.613   0.193   6.900
  630DIO    C2635260  -0.651   0.327   6.960
  630DIO     H135261   1.069   0.042   7.052
  630DIO     H235262   1.028   0.480   7.012
  630DIO     H335263   0.851   0.359   6.827
  630DIO     H435264   0.600   0.331   6.814
  630DIO     H535265   0.600   0.103   7.187
  630DIO     H635266  -0.009   0.162   6.778
  630DIO     H735267  -0.021  -0.090   7.136
  630DIO     H835268  -0.178  -0.087   6.870
  630DIO     H935269  -0.214   0.270   6.950
  630DIO    H1035270  -0.353   0.277   6.845
  630DIO    H1135271  -0.412   0.264   7.092
  630DIO    H1235272  -0.370   0.040   7.203
  630DIO    H1335273  -0.223   0.129   7.166
  630DIO    H1435274  -0.502   0.014   6.939
  630DIO    H1535275  -0.579   0.083   7.081
  630DIO    H1635276  -0.566   0.208   6.803
  630DIO    H1735277  -0.705   0.136   6.881
  630DIO    H1835278  -0.695   0.315   7.060
  630DIO    H1935279  -0.565   0.394   6.968
  630DIO    H2035280  -0.725   0.377   6.896
  631DIO     F135281   5.882   7.017   5.148
  631DIO     C135282   5.804   7.003   5.039
  631DIO     C235283   5.660   6.996   5.055
  631DIO     C335284   5.572   6.979   4.937
  631DIO     C435285   5.637   6.971   4.805
  631DIO     C535286   5.781   6.978   4.792
  631DIO     F235287   5.837   6.975   4.669
  631DIO     C635288   5.865   6.994   4.908
  631DIO     F335289   5.999   7.000   4.895
  631DIO     C735290   5.425   6.970   4.951
  631DIO     C835291   5.348   6.861   4.888
  631DIO     C935292   5.203   6.853   4.901
  631DIO    C1035293   5.131   6.959   4.969
  631DIO    C1135294   5.203   7.064   5.038
  631DIO    C1235295   5.347   7.070   5.027
  631DIO     F435296   5.412   7.171   5.088
  631DIO     O135297   4.999   6.933   4.998
  631DIO    C1335298   4.904   7.036   4.997
  631DIO     O235299   4.903   7.151   4.946
  631DIO    C1435300   4.775   6.994   5.053
  631DIO    C1535301   4.709   6.868   5.010
  631DIO     F535302   4.771   6.784   4.925
  631DIO    C1635303   4.578   6.829   5.059
  631DIO    C1735304   4.502   6.916   5.148
  631DIO    C1835305   4.571   7.032   5.204
  631DIO    C1935306   4.702   7.070   5.156
  631DIO     F635307   4.765   7.170   5.223
  631DIO    C2035308   4.361   6.882   5.190
  631DIO     O335309   4.292   6.798   5.097
  631DIO    C2135310   4.248   6.869   4.982
  631DIO    C2235311   4.159   6.987   5.020
  631DIO    C2335312   4.240   7.073   5.118
  631DIO     O435313   4.284   6.996   5.229
  631DIO    C2435314   4.026   6.944   5.086
  631DIO    C2535315   3.936   6.854   5.001
  631DIO    C2635316   3.897   6.915   4.867
  631DIO     H135317   5.618   7.004   5.154
  631DIO     H235318   5.576   6.968   4.715
  631DIO     H335319   5.400   6.782   4.835
  631DIO     H435320   5.148   6.769   4.862
  631DIO     H535321   5.149   7.140   5.093
  631DIO     H635322   4.540   6.731   5.031
  631DIO     H735323   4.528   7.087   5.287
  631DIO     H835324   4.371   6.821   5.281
  631DIO     H935325   4.335   6.904   4.924
  631DIO    H1035326   4.195   6.799   4.917
  631DIO    H1135327   4.137   7.047   4.931
  631DIO    H1235328   4.179   7.155   5.156
  631DIO    H1335329   4.326   7.119   5.067
  631DIO    H1435330   4.046   6.891   5.181
  631DIO    H1535331   3.970   7.034   5.113
  631DIO    H1635332   3.983   6.757   4.985
  631DIO    H1735333   3.844   6.834   5.058
  631DIO    H1835334   3.853   7.014   4.880
  631DIO    H1935335   3.984   6.923   4.801
  631DIO    H2035336   3.824   6.851   4.817
  632DIO     F135337   6.548   6.446   8.702
  632DIO     C135338   6.470   6.457   8.811
  632DIO     C235339   6.326   6.464   8.796
  632DIO     C335340   6.237   6.479   8.913
  632DIO     C435341   6.303   6.484   9.046
  632DIO     C535342   6.447   6.477   9.059
  632DIO     F235343   6.502   6.477   9.182
  632DIO     C635344   6.531   6.463   8.942
  632DIO     F335345   6.664   6.457   8.955
  632DIO     C735346   6.091   6.487   8.900
  632DIO     C835347   6.014   6.595   8.965
  632DIO     C935348   5.869   6.603   8.953
  632DIO    C1035349   5.796   6.499   8.883
  632DIO    C1135350   5.869   6.396   8.811
  632DIO    C1235351   6.013   6.389   8.822
  632DIO     F435352   6.078   6.289   8.758
  632DIO     O135353   5.664   6.526   8.854
  632DIO    C1335354   5.570   6.423   8.853
  632DIO     O235355   5.569   6.307   8.902
  632DIO    C1435356   5.441   6.466   8.798
  632DIO    C1535357   5.374   6.591   8.843
  632DIO     F535358   5.437   6.673   8.930
  632DIO    C1635359   5.243   6.631   8.795
  632DIO    C1735360   5.168   6.546   8.705
  632DIO    C1835361   5.236   6.432   8.646
  632DIO    C1935362   5.368   6.392   8.693
  632DIO     F635363   5.431   6.294   8.623
  632DIO    C2035364   5.027   6.581   8.663
  632DIO     O335365   4.957   6.663   8.758
  632DIO    C2135366   4.914   6.589   8.872
  632DIO    C2235367   4.825   6.472   8.830
  632DIO    C2335368   4.905   6.388   8.731
  632DIO     O435369   4.950   6.468   8.622
  632DIO    C2435370   4.692   6.517   8.765
  632DIO    C2535371   4.601   6.605   8.852
  632DIO    C2635372   4.563   6.541   8.985
  632DIO     H135373   6.283   6.458   8.697
  632DIO     H235374   6.242   6.485   9.136
  632DIO     H335375   6.065   6.673   9.020
  632DIO     H435376   5.814   6.687   8.993
  632DIO     H535377   5.814   6.321   8.754
  632DIO     H635378   5.205   6.728   8.826
  632DIO     H735379   5.194   6.378   8.562
  632DIO     H835380   5.037   6.644   8.573
  632DIO     H935381   5.000   6.553   8.928
  632DIO    H1035382   4.861   6.658   8.938
  632DIO    H1135383   4.802   6.411   8.918
  632DIO    H1235384   4.844   6.307   8.691
  632DIO    H1335385   4.992   6.342   8.781
  632DIO    H1435386   4.712   6.571   8.672
  632DIO    H1535387   4.635   6.427   8.737
  632DIO    H1635388   4.649   6.702   8.871
  632DIO    H1735389   4.509   6.626   8.796
  632DIO    H1835390   4.519   6.442   8.970
  632DIO    H1935391   4.649   6.531   9.051
  632DIO    H2035392   4.489   6.604   9.036
  633DIO     F135393   7.083   5.906   1.256
  633DIO     C135394   7.005   5.892   1.365
  633DIO     C235395   6.861   5.902   1.352
  633DIO     C335396   6.772   5.890   1.469
  633DIO     C435397   6.838   5.863   1.600
  633DIO     C535398   6.982   5.853   1.610
  633DIO     F235399   7.038   5.825   1.730
  633DIO     C635400   7.066   5.867   1.494
  633DIO     F335401   7.200   5.859   1.505
  633DIO     C735402   6.626   5.901   1.458
  633DIO     C835403   6.549   5.991   1.547
  633DIO     C935404   6.404   6.002   1.536
  633DIO    C1035405   6.332   5.916   1.444
  633DIO    C1135406   6.404   5.833   1.350
  633DIO    C1235407   6.548   5.824   1.359
  633DIO     F435408   6.613   5.741   1.274
  633DIO     O135409   6.199   5.949   1.422
  633DIO    C1335410   6.105   5.850   1.397
  633DIO     O235411   6.104   5.725   1.418
  633DIO    C1435412   5.976   5.904   1.354
  633DIO    C1535413   5.910   6.015   1.427
  633DIO     F535414   5.972   6.075   1.530
  633DIO    C1635415   5.779   6.065   1.390
  633DIO    C1735416   5.703   6.003   1.282
  633DIO    C1835417   5.772   5.906   1.198
  633DIO    C1935418   5.903   5.856   1.234
  633DIO     F635419   5.966   5.777   1.144
  633DIO    C2035420   5.562   6.047   1.249
  633DIO     O335421   5.493   6.104   1.361
  633DIO    C2135422   5.449   6.007   1.454
  633DIO    C2235423   5.360   5.902   1.387
  633DIO    C2335424   5.441   5.844   1.271
  633DIO     O435425   5.485   5.947   1.183
  633DIO    C2435426   5.227   5.961   1.334
  633DIO    C2535427   5.137   6.026   1.439
  633DIO    C2635428   5.098   5.934   1.553
  633DIO     H135429   6.819   5.920   1.254
  633DIO     H235430   6.777   5.843   1.687
  633DIO     H335431   6.600   6.054   1.618
  633DIO     H435432   6.349   6.073   1.596
  633DIO     H535433   6.350   5.773   1.278
  633DIO     H635434   5.741   6.152   1.442
  633DIO     H735435   5.729   5.873   1.104
  633DIO     H835436   5.572   6.129   1.177
  633DIO     H935437   5.536   5.959   1.501
  633DIO    H1035438   5.396   6.058   1.535
  633DIO    H1135439   5.337   5.822   1.458
  633DIO    H1235440   5.380   5.774   1.213
  633DIO    H1335441   5.527   5.787   1.308
  633DIO    H1435442   5.247   6.036   1.256
  633DIO    H1535443   5.171   5.881   1.286
  633DIO    H1635444   5.184   6.117   1.480
  633DIO    H1735445   5.045   6.060   1.389
  633DIO    H1835446   5.054   5.841   1.516
  633DIO    H1935447   5.185   5.908   1.615
  633DIO    H2035448   5.024   5.982   1.618
  634DIO     F135449   2.495   6.934   1.715
  634DIO     C135450   2.417   6.913   1.607
  634DIO     C235451   2.273   6.907   1.623
  634DIO     C335452   2.184   6.882   1.507
  634DIO     C435453   2.250   6.866   1.375
  634DIO     C535454   2.394   6.872   1.362
  634DIO     F235455   2.449   6.861   1.240
  634DIO     C635456   2.478   6.896   1.477
  634DIO     F335457   2.611   6.900   1.464
  634DIO     C735458   2.038   6.875   1.521
  634DIO     C835459   1.961   6.762   1.466
  634DIO     C935460   1.816   6.755   1.479
  634DIO    C1035461   1.743   6.865   1.540
  634DIO    C1135462   1.816   6.974   1.602
  634DIO    C1235463   1.960   6.979   1.591
  634DIO     F435464   2.025   7.084   1.645
  634DIO     O135465   1.611   6.841   1.571
  634DIO    C1335466   1.517   6.943   1.563
  634DIO     O235467   1.516   7.054   1.504
  634DIO    C1435468   1.387   6.905   1.621
  634DIO    C1535469   1.321   6.777   1.587
  634DIO     F535470   1.384   6.687   1.508
  634DIO    C1635471   1.190   6.741   1.638
  634DIO    C1735472   1.115   6.834   1.721
  634DIO    C1835473   1.183   6.953   1.770
  634DIO    C1935474   1.315   6.988   1.720
  634DIO     F635475   1.377   7.092   1.780
  634DIO    C2035476   0.974   6.802   1.766
  634DIO     O335477   0.904   6.713   1.678
  634DIO    C2135478   0.860   6.776   1.559
  634DIO    C2235479   0.772   6.896   1.590
  634DIO    C2335480   0.852   6.988   1.681
  634DIO     O435481   0.897   6.919   1.797
  634DIO    C2435482   0.639   6.857   1.658
  634DIO    C2535483   0.548   6.762   1.579
  634DIO    C2635484   0.510   6.814   1.442
  634DIO     H135485   2.230   6.922   1.722
  634DIO     H235486   2.189   6.857   1.286
  634DIO     H335487   2.012   6.679   1.418
  634DIO     H435488   1.761   6.668   1.446
  634DIO     H535489   1.761   7.053   1.652
  634DIO     H635490   1.152   6.642   1.616
  634DIO     H735491   1.140   7.014   1.848
  634DIO     H835492   0.984   6.748   1.861
  634DIO     H935493   0.947   6.807   1.499
  634DIO    H1035494   0.808   6.701   1.499
  634DIO    H1135495   0.749   6.950   1.497
  634DIO    H1235496   0.791   7.073   1.714
  634DIO    H1335497   0.938   7.030   1.628
  634DIO    H1435498   0.659   6.811   1.756
  634DIO    H1535499   0.582   6.949   1.679
  634DIO    H1635500   0.595   6.664   1.569
  634DIO    H1735501   0.456   6.746   1.637
  634DIO    H1835502   0.466   6.914   1.448
  634DIO    H1935503   0.596   6.818   1.375
  634DIO    H2035504   0.436   6.747   1.396
  635DIO     F135505   5.737   9.109   0.103
  635DIO     C135506   5.659   9.209   0.149
  635DIO     C235507   5.515   9.199   0.136
  635DIO     C335508   5.426   9.308   0.183
  635DIO     C435509   5.492   9.424   0.247
  635DIO     C535510   5.636   9.432   0.259
  635DIO     F235511   5.691   9.537   0.322
  635DIO     C635512   5.720   9.324   0.212
  635DIO     F335513   5.854   9.333   0.223
  635DIO     C735514   5.280   9.300   0.169
  635DIO     C835515   5.203   9.412   0.110
  635DIO     C935516   5.058   9.405   0.096
  635DIO    C1035517   4.985   9.292   0.150
  635DIO    C1135518   5.058   9.177   0.202
  635DIO    C1235519   5.202   9.183   0.213
  635DIO     F435520   5.267   9.078   0.266
  635DIO     O135521   4.853   9.280   0.112
  635DIO    C1335522   4.759   9.227   0.200
  635DIO     O235523   4.758   9.210   0.324
  635DIO    C1435524   4.630   9.202   0.135
  635DIO    C1535525   4.563   9.305   0.051
  635DIO     F535526   4.626   9.421   0.025
  635DIO    C1635527   4.433   9.284  -0.009
  635DIO    C1735528   4.357   9.163   0.019
  635DIO    C1835529   4.426   9.054   0.086
  635DIO    C1935530   4.557   9.074   0.145
  635DIO     F635531   4.620   8.964   0.193
  635DIO    C2035532   4.216   9.145  -0.033
  635DIO     O335533   4.146   9.268  -0.055
  635DIO    C2135534   4.103   9.328   0.067
  635DIO    C2235535   4.014   9.233   0.146
  635DIO    C2335536   4.095   9.105   0.167
  635DIO     O435537   4.139   9.052   0.043
  635DIO    C2435538   3.881   9.200   0.074
  635DIO    C2535539   3.790   9.320   0.043
  635DIO    C2635540   3.752   9.401   0.166
  635DIO     H135541   5.472   9.111   0.090
  635DIO     H235542   5.431   9.502   0.292
  635DIO     H335543   5.254   9.499   0.071
  635DIO     H435544   5.003   9.483   0.045
  635DIO     H535545   5.004   9.090   0.237
  635DIO     H635546   4.394   9.360  -0.076
  635DIO     H735547   4.383   8.954   0.090
  635DIO     H835548   4.226   9.100  -0.133
  635DIO     H935549   4.189   9.359   0.126
  635DIO    H1035550   4.050   9.421   0.041
  635DIO    H1135551   3.991   9.277   0.244
  635DIO    H1235552   4.033   9.029   0.217
  635DIO    H1335553   4.181   9.124   0.233
  635DIO    H1435554   3.901   9.148  -0.020
  635DIO    H1535555   3.825   9.130   0.137
  635DIO    H1635556   3.838   9.385  -0.031
  635DIO    H1735557   3.699   9.282  -0.004
  635DIO    H1835558   3.708   9.337   0.243
  635DIO    H1935559   3.838   9.453   0.208
  635DIO    H2035560   3.678   9.477   0.139
  636DIO     F135561   4.470  10.621   5.416
  636DIO     C135562   4.393  10.700   5.492
  636DIO     C235563   4.249  10.696   5.476
  636DIO     C335564   4.160  10.783   5.556
  636DIO     C435565   4.225  10.872   5.655
  636DIO     C535566   4.370  10.875   5.669
  636DIO     F235567   4.425  10.955   5.762
  636DIO     C635568   4.453  10.789   5.589
  636DIO     F335569   4.587  10.793   5.602
  636DIO     C735570   4.014  10.781   5.540
  636DIO     C835571   3.936  10.906   5.521
  636DIO     C935572   3.792  10.903   5.506
  636DIO    C1035573   3.719  10.778   5.520
  636DIO    C1135574   3.792  10.653   5.531
  636DIO    C1235575   3.936  10.655   5.544
  636DIO     F435576   4.001  10.538   5.560
  636DIO     O135577   3.587  10.780   5.481
  636DIO    C1335578   3.492  10.701   5.546
  636DIO     O235579   3.492  10.644   5.658
  636DIO    C1435580   3.363  10.699   5.476
  636DIO    C1535581   3.297  10.823   5.430
  636DIO     F535582   3.360  10.942   5.443
  636DIO    C1635583   3.166  10.823   5.368
  636DIO    C1735584   3.090  10.699   5.354
  636DIO    C1835585   3.159  10.574   5.382
  636DIO    C1935586   3.291  10.574   5.444
  636DIO     F635587   3.353  10.455   5.454
  636DIO    C2035588   2.950  10.699   5.299
  636DIO     O335589   2.880  10.823   5.319
  636DIO    C2135590   2.836  10.840   5.453
  636DIO    C2235591   2.747  10.724   5.497
  636DIO    C2335592   2.828  10.596   5.475
  636DIO     O435593   2.872  10.586   5.340
  636DIO    C2435594   2.615  10.717   5.418
  636DIO    C2535595   2.524  10.840   5.428
  636DIO    C2635596   2.486  10.877   5.571
  636DIO     H135597   4.206  10.627   5.404
  636DIO     H235598   4.165  10.931   5.723
  636DIO     H335599   3.988  11.000   5.512
  636DIO     H435600   3.737  10.994   5.483
  636DIO     H535601   3.737  10.560   5.536
  636DIO     H635602   3.128  10.917   5.328
  636DIO     H735603   3.116  10.479   5.353
  636DIO     H835604   2.959  10.689   5.190
  636DIO     H935605   2.923  10.849   5.519
  636DIO    H1035606   2.784  10.936   5.459
  636DIO    H1135607   2.725  10.734   5.604
  636DIO    H1235608   2.767  10.508   5.497
  636DIO    H1335609   2.914  10.593   5.543
  636DIO    H1435610   2.635  10.698   5.312
  636DIO    H1535611   2.558  10.630   5.455
  636DIO    H1635612   2.571  10.926   5.379
  636DIO    H1735613   2.432  10.819   5.371
  636DIO    H1835614   2.442  10.791   5.623
  636DIO    H1935615   2.572  10.912   5.628
  636DIO    H2035616   2.412  10.958   5.570
  637DIO     F135617   3.028   1.337   6.828
  637DIO     C135618   2.951   1.263   6.910
  637DIO     C235619   2.807   1.279   6.905
  637DIO     C335620   2.718   1.201   6.994
  637DIO     C435621   2.783   1.105   7.086
  637DIO     C535622   2.928   1.091   7.089
  637DIO     F235623   2.983   1.000   7.171
  637DIO     C635624   3.011   1.169   7.001
  637DIO     F335625   3.145   1.156   7.006
  637DIO     C735626   2.571   1.217   6.991
  637DIO     C835627   2.494   1.240   7.116
  637DIO     C935628   2.350   1.255   7.113
  637DIO    C1035629   2.277   1.238   6.989
  637DIO    C1135630   2.349   1.223   6.864
  637DIO    C1235631   2.494   1.210   6.866
  637DIO     F435632   2.558   1.191   6.749
  637DIO     O135633   2.145   1.277   6.989
  637DIO    C1335634   2.050   1.210   6.912
  637DIO     O235635   2.049   1.096   6.858
  637DIO    C1435636   1.921   1.279   6.908
  637DIO    C1535637   1.855   1.328   7.031
  637DIO     F535638   1.917   1.318   7.150
  637DIO    C1635639   1.724   1.391   7.029
  637DIO    C1735640   1.648   1.402   6.905
  637DIO    C1835641   1.717   1.370   6.781
  637DIO    C1935642   1.849   1.308   6.782
  637DIO     F635643   1.911   1.295   6.663
  637DIO    C2035644   1.508   1.457   6.904
  637DIO     O335645   1.438   1.440   7.028
  637DIO    C2135646   1.394   1.306   7.048
  637DIO    C2235647   1.305   1.259   6.934
  637DIO    C2335648   1.386   1.277   6.805
  637DIO     O435649   1.430   1.412   6.792
  637DIO    C2435650   1.172   1.337   6.924
  637DIO    C2535651   1.082   1.331   7.047
  637DIO    C2635652   1.043   1.190   7.088
  637DIO     H135653   2.764   1.350   6.834
  637DIO     H235654   2.723   1.039   7.147
  637DIO     H335655   2.546   1.251   7.210
  637DIO     H435656   2.294   1.280   7.203
  637DIO     H535657   2.295   1.215   6.770
  637DIO     H635658   1.686   1.433   7.122
  637DIO     H735659   1.674   1.396   6.685
  637DIO     H835660   1.517   1.565   6.891
  637DIO     H935661   1.481   1.240   7.059
  637DIO    H1035662   1.341   1.302   7.144
  637DIO    H1135663   1.283   1.153   6.946
  637DIO    H1235664   1.325   1.253   6.718
  637DIO    H1335665   1.472   1.209   6.803
  637DIO    H1435666   1.192   1.443   6.902
  637DIO    H1535667   1.116   1.299   6.838
  637DIO    H1635668   1.129   1.382   7.132
  637DIO    H1735669   0.990   1.387   7.025
  637DIO    H1835670   0.999   1.135   7.004
  637DIO    H1935671   1.130   1.133   7.125
  637DIO    H2035672   0.970   1.193   7.169
  638DIO     F135673   1.798   9.659   8.382
  638DIO     C135674   1.720   9.567   8.322
  638DIO     C235675   1.576   9.575   8.337
  638DIO     C335676   1.487   9.474   8.275
  638DIO     C435677   1.553   9.368   8.195
  638DIO     C535678   1.697   9.363   8.181
  638DIO     F235679   1.752   9.267   8.104
  638DIO     C635680   1.781   9.462   8.244
  638DIO     F335681   1.914   9.455   8.231
  638DIO     C735682   1.341   9.479   8.290
  638DIO     C835683   1.264   9.360   8.332
  638DIO     C935684   1.119   9.365   8.346
  638DIO    C1035685   1.046   9.485   8.310
  638DIO    C1135686   1.119   9.606   8.275
  638DIO    C1235687   1.263   9.602   8.263
  638DIO     F435688   1.328   9.714   8.226
  638DIO     O135689   0.914   9.491   8.348
  638DIO    C1335690   0.820   9.556   8.270
  638DIO     O235691   0.819   9.592   8.149
  638DIO    C1435692   0.690   9.572   8.338
  638DIO    C1535693   0.624   9.458   8.406
  638DIO     F535694   0.687   9.339   8.415
  638DIO    C1635695   0.493   9.470   8.467
  638DIO    C1735696   0.418   9.594   8.458
  638DIO    C1835697   0.486   9.712   8.407
  638DIO    C1935698   0.618   9.700   8.346
  638DIO     F635699   0.680   9.816   8.314
  638DIO    C2035700   0.277   9.604   8.512
  638DIO     O335701   0.207   9.479   8.515
  638DIO    C2135702   0.163   9.437   8.387
  638DIO    C2235703   0.075   9.543   8.322
  638DIO    C2335704   0.155   9.673   8.319
  638DIO     O435705   0.200   9.707   8.450
  638DIO    C2435706  -0.058   9.565   8.398
  638DIO    C2535707  -0.149   9.442   8.411
  638DIO    C2635708  -0.187   9.380   8.278
  638DIO     H135709   1.533   9.656   8.396
  638DIO     H235710   1.492   9.298   8.138
  638DIO     H335711   1.315   9.269   8.358
  638DIO     H435712   1.064   9.281   8.385
  638DIO     H535713   1.064   9.697   8.253
  638DIO     H635714   0.455   9.385   8.523
  638DIO     H735715   0.443   9.811   8.418
  638DIO     H835716   0.287   9.634   8.617
  638DIO     H935717   0.250   9.416   8.323
  638DIO    H1035718   0.111   9.342   8.398
  638DIO    H1135719   0.052   9.514   8.219
  638DIO    H1235720   0.094   9.755   8.282
  638DIO    H1335721   0.241   9.664   8.252
  638DIO    H1435722  -0.038   9.603   8.499
  638DIO    H1535723  -0.115   9.644   8.346
  638DIO    H1635724  -0.102   9.367   8.475
  638DIO    H1735725  -0.241   9.473   8.463
  638DIO    H1835726  -0.231   9.454   8.210
  638DIO    H1935727  -0.101   9.334   8.228
  638DIO    H2035728  -0.261   9.300   8.294
  639DIO     F135729   2.243   8.337   6.966
  639DIO     C135730   2.165   8.247   7.028
  639DIO     C235731   2.021   8.264   7.027
  639DIO     C335732   1.932   8.168   7.097
  639DIO     C435733   1.998   8.053   7.164
  639DIO     C535734   2.142   8.039   7.164
  639DIO     F235735   2.197   7.931   7.223
  639DIO     C635736   2.226   8.134   7.096
  639DIO     F335737   2.359   8.120   7.097
  639DIO     C735738   1.786   8.184   7.097
  639DIO     C835739   1.709   8.178   7.224
  639DIO     C935740   1.564   8.193   7.224
  639DIO    C1035741   1.491   8.204   7.099
  639DIO    C1135742   1.564   8.218   6.974
  639DIO    C1235743   1.708   8.205   6.974
  639DIO     F435744   1.773   8.213   6.856
  639DIO     O135745   1.359   8.242   7.109
  639DIO    C1335746   1.265   8.194   7.019
  639DIO     O235747   1.264   8.096   6.940
  639DIO    C1435748   1.136   8.263   7.030
  639DIO    C1535749   1.069   8.283   7.161
  639DIO     F535750   1.132   8.246   7.275
  639DIO    C1635751   0.938   8.344   7.174
  639DIO    C1735752   0.863   8.383   7.055
  639DIO    C1835753   0.931   8.380   6.927
  639DIO    C1935754   1.063   8.320   6.914
  639DIO     F635755   1.126   8.334   6.795
  639DIO    C2035756   0.722   8.437   7.066
  639DIO     O335757   0.652   8.392   7.183
  639DIO    C2135758   0.609   8.257   7.173
  639DIO    C2235759   0.520   8.237   7.051
  639DIO    C2335760   0.600   8.284   6.930
  639DIO     O435761   0.645   8.418   6.947
  639DIO    C2435762   0.387   8.316   7.059
  639DIO    C2535763   0.296   8.282   7.178
  639DIO    C2635764   0.258   8.135   7.185
  639DIO     H135765   1.978   8.348   6.975
  639DIO     H235766   1.937   7.975   7.208
  639DIO     H335767   1.760   8.167   7.318
  639DIO     H435768   1.509   8.197   7.317
  639DIO     H535769   1.509   8.232   6.882
  639DIO     H635770   0.900   8.364   7.273
  639DIO     H735771   0.889   8.428   6.840
  639DIO     H835772   0.732   8.545   7.078
  639DIO     H935773   0.695   8.190   7.169
  639DIO    H1035774   0.556   8.232   7.266
  639DIO    H1135775   0.497   8.131   7.039
  639DIO    H1235776   0.539   8.281   6.839
  639DIO    H1335777   0.687   8.218   6.913
  639DIO    H1435778   0.407   8.424   7.062
  639DIO    H1535779   0.330   8.298   6.967
  639DIO    H1635780   0.344   8.312   7.272
  639DIO    H1735781   0.204   8.341   7.169
  639DIO    H1835782   0.214   8.100   7.091
  639DIO    H1935783   0.344   8.072   7.208
  639DIO    H2035784   0.184   8.119   7.265
  640DIO     F135785  10.279   8.691   1.885
  640DIO     C135786  10.202   8.586   1.852
  640DIO     C235787  10.058   8.598   1.865
  640DIO     C335788   9.969   8.484   1.833
  640DIO     C435789  10.034   8.359   1.785
  640DIO     C535790  10.179   8.351   1.773
  640DIO     F235791  10.234   8.237   1.726
  640DIO     C635792  10.262   8.463   1.806
  640DIO     F335793  10.396   8.454   1.796
  640DIO     C735794   9.822   8.493   1.846
  640DIO     C835795   9.745   8.390   1.919
  640DIO     C935796   9.601   8.399   1.932
  640DIO    C1035797   9.528   8.504   1.863
  640DIO    C1135798   9.601   8.611   1.796
  640DIO    C1235799   9.745   8.603   1.786
  640DIO     F435800   9.810   8.701   1.719
  640DIO     O135801   9.396   8.520   1.899
  640DIO    C1335802   9.301   8.561   1.805
  640DIO     O235803   9.300   8.562   1.679
  640DIO    C1435804   9.172   8.595   1.866
  640DIO    C1535805   9.106   8.505   1.963
  640DIO     F535806   9.169   8.393   2.005
  640DIO    C1635807   8.975   8.533   2.019
  640DIO    C1735808   8.899   8.650   1.976
  640DIO    C1835809   8.968   8.749   1.894
  640DIO    C1935810   9.100   8.721   1.839
  640DIO     F635811   9.162   8.823   1.776
  640DIO    C2035812   8.759   8.674   2.025
  640DIO     O335813   8.689   8.555   2.063
  640DIO    C2135814   8.645   8.479   1.950
  640DIO    C2235815   8.556   8.563   1.859
  640DIO    C2335816   8.637   8.687   1.821
  640DIO     O435817   8.681   8.756   1.937
  640DIO    C2435818   8.424   8.605   1.926
  640DIO    C2535819   8.333   8.491   1.972
  640DIO    C2635820   8.294   8.394   1.862
  640DIO     H135821  10.015   8.691   1.899
  640DIO     H235822   9.974   8.276   1.751
  640DIO     H335823   9.797   8.309   1.969
  640DIO     H435824   9.546   8.329   1.993
  640DIO     H535825   9.546   8.692   1.750
  640DIO     H635826   8.937   8.467   2.096
  640DIO     H735827   8.925   8.847   1.877
  640DIO     H835828   8.768   8.732   2.117
  640DIO     H935829   8.732   8.441   1.895
  640DIO    H1035830   8.592   8.391   1.988
  640DIO    H1135831   8.534   8.506   1.768
  640DIO    H1235832   8.576   8.756   1.762
  640DIO    H1335833   8.723   8.659   1.758
  640DIO    H1435834   8.443   8.670   2.012
  640DIO    H1535835   8.367   8.666   1.854
  640DIO    H1635836   8.380   8.436   2.055
  640DIO    H1735837   8.241   8.534   2.014
  640DIO    H1835838   8.251   8.446   1.777
  640DIO    H1935839   8.381   8.337   1.827
  640DIO    H2035840   8.221   8.322   1.899
  641DIO     F135841   3.475   3.951   3.113
  641DIO     C135842   3.397   3.860   3.051
  641DIO     C235843   3.253   3.868   3.067
  641DIO     C335844   3.164   3.768   3.002
  641DIO     C435845   3.230   3.663   2.921
  641DIO     C535846   3.374   3.658   2.907
  641DIO     F235847   3.430   3.563   2.829
  641DIO     C635848   3.458   3.756   2.972
  641DIO     F335849   3.592   3.750   2.959
  641DIO     C735850   3.018   3.773   3.018
  641DIO     C835851   2.941   3.653   3.058
  641DIO     C935852   2.796   3.658   3.073
  641DIO    C1035853   2.724   3.779   3.038
  641DIO    C1135854   2.796   3.900   3.005
  641DIO    C1235855   2.940   3.896   2.993
  641DIO     F435856   3.005   4.009   2.957
  641DIO     O135857   2.591   3.784   3.076
  641DIO    C1335858   2.497   3.850   2.999
  641DIO     O235859   2.496   3.887   2.878
  641DIO    C1435860   2.368   3.865   3.067
  641DIO    C1535861   2.302   3.750   3.133
  641DIO     F535862   2.364   3.631   3.141
  641DIO    C1635863   2.171   3.761   3.195
  641DIO    C1735864   2.095   3.885   3.188
  641DIO    C1835865   2.164   4.004   3.138
  641DIO    C1935866   2.295   3.993   3.078
  641DIO     F635867   2.358   4.109   3.047
  641DIO    C2035868   1.954   3.894   3.242
  641DIO     O335869   1.885   3.769   3.243
  641DIO    C2135870   1.841   3.729   3.114
  641DIO    C2235871   1.752   3.836   3.051
  641DIO    C2335872   1.833   3.966   3.050
  641DIO     O435873   1.877   3.999   3.181
  641DIO    C2435874   1.619   3.857   3.127
  641DIO    C2535875   1.529   3.734   3.138
  641DIO    C2635876   1.490   3.673   3.004
  641DIO     H135877   3.211   3.947   3.126
  641DIO     H235878   3.169   3.593   2.864
  641DIO     H335879   2.992   3.561   3.083
  641DIO     H435880   2.741   3.573   3.111
  641DIO     H535881   2.742   3.991   2.984
  641DIO     H635882   2.133   3.675   3.250
  641DIO     H735883   2.121   4.102   3.151
  641DIO     H835884   1.964   3.923   3.347
  641DIO     H935885   1.928   3.709   3.050
  641DIO    H1035886   1.788   3.634   3.124
  641DIO    H1135887   1.729   3.808   2.947
  641DIO    H1235888   1.772   4.049   3.014
  641DIO    H1335889   1.919   3.958   2.983
  641DIO    H1435890   1.639   3.894   3.228
  641DIO    H1535891   1.563   3.936   3.076
  641DIO    H1635892   1.576   3.658   3.201
  641DIO    H1735893   1.437   3.764   3.191
  641DIO    H1835894   1.446   3.748   2.938
  641DIO    H1935895   1.577   3.629   2.954
  641DIO    H2035896   1.416   3.594   3.019
  642DIO     F135897   4.815   5.400  10.459
  642DIO     C135898   4.738   5.367  10.564
  642DIO     C235899   4.594   5.379  10.553
  642DIO     C335900   4.505   5.346  10.666
  642DIO     C435901   4.570   5.297  10.790
  642DIO     C535902   4.715   5.286  10.799
  642DIO     F235903   4.770   5.237  10.912
  642DIO     C635904   4.798   5.320  10.686
  642DIO     F335905   4.932   5.309  10.696
  642DIO     C735906   4.359   5.359  10.657
  642DIO     C835907   4.281   5.432  10.761
  642DIO     C935908   4.137   5.444  10.752
  642DIO    C1035909   4.064   5.377  10.646
  642DIO    C1135910   4.137   5.311  10.539
  642DIO    C1235911   4.281   5.301  10.546
  642DIO     F435912   4.346   5.235  10.448
  642DIO     O135913   3.932   5.413  10.630
  642DIO    C1335914   3.837   5.319  10.588
  642DIO     O235915   3.837   5.193  10.587
  642DIO    C1435916   3.708   5.381  10.555
  642DIO    C1535917   3.642   5.477  10.647
  642DIO     F535918   3.705   5.517  10.759
  642DIO    C1635919   3.511   5.533  10.619
  642DIO    C1735920   3.435   5.491  10.502
  642DIO    C1835921   3.504   5.410  10.402
  642DIO    C1935922   3.636   5.355  10.429
  642DIO     F635923   3.698   5.293  10.327
  642DIO    C2035924   3.295   5.540  10.478
  642DIO     O335925   3.225   5.577  10.597
  642DIO    C2135926   3.181   5.464  10.672
  642DIO    C2235927   3.092   5.373  10.587
  642DIO    C2335928   3.173   5.336  10.463
  642DIO     O435929   3.217   5.453  10.395
  642DIO    C2435930   2.960   5.440  10.546
  642DIO    C2535931   2.869   5.486  10.661
  642DIO    C2635932   2.831   5.375  10.757
  642DIO     H135933   4.551   5.414  10.459
  642DIO     H235934   4.510   5.262  10.873
  642DIO     H335935   4.333   5.481  10.842
  642DIO     H435936   4.082   5.505  10.823
  642DIO     H535937   4.082   5.265  10.457
  642DIO     H635938   3.473   5.610  10.686
  642DIO     H735939   3.461   5.394  10.304
  642DIO     H835940   3.304   5.633  10.420
  642DIO     H935941   3.268   5.408  10.710
  642DIO    H1035942   3.129   5.501  10.760
  642DIO    H1135943   3.070   5.282  10.643
  642DIO    H1235944   3.112   5.278  10.393
  642DIO    H1335945   3.259   5.274  10.490
  642DIO    H1435946   2.980   5.527  10.482
  642DIO    H1535947   2.903   5.370  10.484
  642DIO    H1635948   2.916   5.568  10.716
  642DIO    H1735949   2.777   5.528  10.617
  642DIO    H1835950   2.787   5.290  10.703
  642DIO    H1935951   2.917   5.339  10.813
  642DIO    H2035952   2.757   5.411  10.829
  643DIO     F135953  10.547   2.601   0.725
  643DIO     C135954  10.469   2.709   0.744
  643DIO     C235955  10.325   2.696   0.733
  643DIO     C335956  10.236   2.814   0.752
  643DIO     C435957  10.302   2.943   0.784
  643DIO     C535958  10.446   2.953   0.794
  643DIO     F235959  10.501   3.071   0.828
  643DIO     C635960  10.530   2.837   0.775
  643DIO     F335961  10.663   2.848   0.784
  643DIO     C735962  10.090   2.803   0.740
  643DIO     C835963  10.013   2.896   0.654
  643DIO     C935964   9.868   2.886   0.643
  643DIO    C1035965   9.795   2.789   0.724
  643DIO    C1135966   9.868   2.692   0.803
  643DIO    C1235967  10.012   2.700   0.812
  643DIO     F435968  10.077   2.612   0.891
  643DIO     O135969   9.663   2.769   0.690
  643DIO    C1335970   9.569   2.740   0.788
  643DIO     O235971   9.568   2.754   0.913
  643DIO    C1435972   9.439   2.699   0.732
  643DIO    C1535973   9.373   2.777   0.625
  643DIO     F535974   9.436   2.883   0.570
  643DIO    C1635975   9.242   2.742   0.572
  643DIO    C1735976   9.167   2.631   0.629
  643DIO    C1835977   9.235   2.543   0.723
  643DIO    C1935978   9.367   2.577   0.774
  643DIO     F635979   9.429   2.484   0.849
  643DIO    C2035980   9.026   2.601   0.584
  643DIO     O335981   8.956   2.715   0.532
  643DIO    C2135982   8.912   2.804   0.634
  643DIO    C2235983   8.824   2.732   0.735
  643DIO    C2335984   8.904   2.613   0.788
  643DIO     O435985   8.949   2.530   0.681
  643DIO    C2435986   8.691   2.682   0.674
  643DIO    C2535987   8.600   2.790   0.614
  643DIO    C2635988   8.562   2.899   0.711
  643DIO     H135989  10.282   2.599   0.711
  643DIO     H235990  10.241   3.029   0.808
  643DIO     H335991  10.064   2.970   0.594
  643DIO     H435992   9.813   2.948   0.574
  643DIO     H535993   9.813   2.617   0.859
  643DIO     H635994   9.204   2.798   0.488
  643DIO     H735995   9.192   2.448   0.752
  643DIO     H835996   9.036   2.532   0.499
  643DIO     H935997   8.999   2.848   0.684
  643DIO    H1035998   8.860   2.887   0.586
  643DIO    H1135999   8.801   2.799   0.818
  643DIO    H1236000   8.843   2.552   0.855
  643DIO    H1336001   8.990   2.648   0.847
  643DIO    H1436002   8.711   2.607   0.596
  643DIO    H1536003   8.634   2.630   0.752
  643DIO    H1636004   8.647   2.834   0.525
  643DIO    H1736005   8.508   2.741   0.578
  643DIO    H1836006   8.518   2.858   0.803
  643DIO    H1936007   8.648   2.960   0.739
  643DIO    H2036008   8.488   2.966   0.666
  644DIO     F136009   9.400   1.861   9.833
  644DIO     C136010   9.322   1.928   9.746
  644DIO     C236011   9.178   1.912   9.753
  644DIO     C336012   9.089   1.983   9.658
  644DIO     C436013   9.155   2.072   9.558
  644DIO     C536014   9.299   2.086   9.554
  644DIO     F236015   9.354   2.170   9.465
  644DIO     C636016   9.383   2.015   9.648
  644DIO     F336017   9.517   2.028   9.642
  644DIO     C736018   8.943   1.968   9.661
  644DIO     C836019   8.866   1.935   9.539
  644DIO     C936020   8.721   1.921   9.543
  644DIO    C1036021   8.648   1.947   9.666
  644DIO    C1136022   8.721   1.972   9.789
  644DIO    C1236023   8.865   1.984   9.786
  644DIO     F436024   8.930   2.012   9.901
  644DIO     O136025   8.516   1.908   9.668
  644DIO    C1336026   8.422   1.981   9.740
  644DIO     O236027   8.421   2.099   9.785
  644DIO    C1436028   8.293   1.912   9.750
  644DIO    C1536029   8.226   1.854   9.631
  644DIO     F536030   8.289   1.854   9.511
  644DIO    C1636031   8.096   1.791   9.637
  644DIO    C1736032   8.020   1.790   9.762
  644DIO    C1836033   8.089   1.832   9.883
  644DIO    C1936034   8.220   1.893   9.877
  644DIO     F636035   8.283   1.915   9.995
  644DIO    C2036036   7.879   1.736   9.767
  644DIO     O336037   7.809   1.743   9.642
  644DIO    C2136038   7.766   1.875   9.611
  644DIO    C2236039   7.677   1.930   9.722
  644DIO    C2336040   7.758   1.922   9.852
  644DIO     O436041   7.802   1.789   9.875
  644DIO    C2436042   7.544   1.853   9.738
  644DIO    C2536043   7.453   1.850   9.614
  644DIO    C2636044   7.415   1.988   9.563
  644DIO     H136045   9.135   1.848   9.828
  644DIO     H236046   9.094   2.133   9.493
  644DIO     H336047   8.917   1.917   9.446
  644DIO     H436048   8.666   1.889   9.456
  644DIO     H536049   8.667   1.986   9.882
  644DIO     H636050   8.057   1.743   9.548
  644DIO     H736051   8.046   1.813   9.981
  644DIO     H836052   7.889   1.629   9.789
  644DIO     H936053   7.852   1.940   9.595
  644DIO    H1036054   7.713   1.871   9.516
  644DIO    H1136055   7.654   2.035   9.701
  644DIO    H1236056   7.696   1.953   9.937
  644DIO    H1336057   7.844   1.990   9.848
  644DIO    H1436058   7.564   1.749   9.768
  644DIO    H1536059   7.488   1.898   9.821
  644DIO    H1636060   7.501   1.793   9.534
  644DIO    H1736061   7.362   1.796   9.641
  644DIO    H1836062   7.371   2.049   9.642
  644DIO    H1936063   7.501   2.041   9.522
  644DIO    H2036064   7.341   1.978   9.482
  645DIO     F136065   1.234   0.397   1.507
  645DIO     C136066   1.156   0.428   1.402
  645DIO     C236067   1.012   0.416   1.413
  645DIO     C336068   0.923   0.447   1.299
  645DIO     C436069   0.989   0.494   1.174
  645DIO     C536070   1.133   0.505   1.166
  645DIO     F236071   1.189   0.552   1.052
  645DIO     C636072   1.217   0.473   1.279
  645DIO     F336073   1.351   0.483   1.269
  645DIO     C736074   0.777   0.434   1.308
  645DIO     C836075   0.700   0.360   1.206
  645DIO     C936076   0.555   0.347   1.215
  645DIO    C1036077   0.483   0.417   1.320
  645DIO    C1136078   0.555   0.485   1.426
  645DIO    C1236079   0.699   0.495   1.418
  645DIO     F436080   0.764   0.563   1.515
  645DIO     O136081   0.350   0.381   1.336
  645DIO    C1336082   0.256   0.476   1.376
  645DIO     O236083   0.255   0.601   1.376
  645DIO    C1436084   0.127   0.415   1.411
  645DIO    C1536085   0.060   0.317   1.321
  645DIO     F536086   0.123   0.274   1.210
  645DIO    C1636087  -0.070   0.261   1.350
  645DIO    C1736088  -0.146   0.306   1.466
  645DIO    C1836089  -0.077   0.388   1.565
  645DIO    C1936090   0.054   0.443   1.536
  645DIO     F636091   0.117   0.507   1.638
  645DIO    C2036092  -0.287   0.257   1.491
  645DIO     O336093  -0.357   0.218   1.372
  645DIO    C2136094  -0.400   0.329   1.295
  645DIO    C2236095  -0.489   0.422   1.378
  645DIO    C2336096  -0.408   0.461   1.502
  645DIO     O436097  -0.364   0.346   1.573
  645DIO    C2436098  -0.622   0.355   1.421
  645DIO    C2536099  -0.713   0.308   1.307
  645DIO    C2636100  -0.751   0.417   1.209
  645DIO     H136101   0.970   0.383   1.507
  645DIO     H236102   0.928   0.527   1.091
  645DIO     H336103   0.751   0.309   1.126
  645DIO     H436104   0.500   0.286   1.145
  645DIO     H536105   0.501   0.532   1.507
  645DIO     H636106  -0.108   0.183   1.285
  645DIO     H736107  -0.120   0.406   1.662
  645DIO     H836108  -0.277   0.165   1.550
  645DIO     H936109  -0.314   0.384   1.257
  645DIO    H1036110  -0.453   0.291   1.208
  645DIO    H1136111  -0.512   0.512   1.321
  645DIO    H1236112  -0.469   0.521   1.571
  645DIO    H1336113  -0.322   0.523   1.474
  645DIO    H1436114  -0.602   0.269   1.487
  645DIO    H1536115  -0.678   0.427   1.482
  645DIO    H1636116  -0.665   0.225   1.253
  645DIO    H1736117  -0.804   0.266   1.351
  645DIO    H1836118  -0.795   0.503   1.261
  645DIO    H1936119  -0.664   0.452   1.152
  645DIO    H2036120  -0.825   0.379   1.138
  646DIO     F136121   3.237   5.839   9.437
  646DIO     C136122   3.160   5.932   9.378
  646DIO     C236123   3.016   5.915   9.379
  646DIO     C336124   2.927   6.013   9.312
  646DIO     C436125   2.992   6.129   9.248
  646DIO     C536126   3.137   6.144   9.249
  646DIO     F236127   3.192   6.254   9.193
  646DIO     C636128   3.220   6.046   9.314
  646DIO     F336129   3.354   6.060   9.313
  646DIO     C736130   2.780   5.997   9.311
  646DIO     C836131   2.703   6.007   9.185
  646DIO     C936132   2.559   5.992   9.184
  646DIO    C1036133   2.486   5.976   9.308
  646DIO    C1136134   2.559   5.959   9.433
  646DIO    C1236135   2.703   5.971   9.434
  646DIO     F436136   2.768   5.960   9.552
  646DIO     O136137   2.354   5.939   9.298
  646DIO    C1336138   2.259   5.984   9.390
  646DIO     O236139   2.258   6.080   9.471
  646DIO    C1436140   2.130   5.916   9.376
  646DIO    C1536141   2.064   5.900   9.244
  646DIO     F536142   2.127   5.940   9.132
  646DIO    C1636143   1.933   5.839   9.229
  646DIO    C1736144   1.857   5.796   9.347
  646DIO    C1836145   1.926   5.795   9.475
  646DIO    C1936146   2.058   5.855   9.490
  646DIO     F636147   2.120   5.837   9.608
  646DIO    C2036148   1.717   5.743   9.334
  646DIO     O336149   1.647   5.791   9.218
  646DIO    C2136150   1.603   5.926   9.233
  646DIO    C2236151   1.514   5.942   9.356
  646DIO    C2336152   1.595   5.891   9.475
  646DIO     O436153   1.639   5.757   9.454
  646DIO    C2436154   1.382   5.863   9.345
  646DIO    C2536155   1.291   5.902   9.228
  646DIO    C2636156   1.252   6.049   9.225
  646DIO     H136157   2.973   5.828   9.428
  646DIO     H236158   2.932   6.209   9.207
  646DIO     H336159   2.755   6.021   9.091
  646DIO     H436160   2.504   5.991   9.091
  646DIO     H536161   2.504   5.942   9.525
  646DIO     H636162   1.895   5.822   9.129
  646DIO     H736163   1.883   5.745   9.561
  646DIO     H836164   1.726   5.635   9.318
  646DIO     H936165   1.690   5.993   9.239
  646DIO    H1036166   1.550   5.954   9.141
  646DIO    H1136167   1.492   6.048   9.371
  646DIO    H1236168   1.534   5.891   9.566
  646DIO    H1336169   1.681   5.956   9.495
  646DIO    H1436170   1.401   5.756   9.339
  646DIO    H1536171   1.325   5.878   9.438
  646DIO    H1636172   1.338   5.874   9.133
  646DIO    H1736173   1.199   5.842   9.234
  646DIO    H1836174   1.209   6.080   9.320
  646DIO    H1936175   1.339   6.112   9.204
  646DIO    H2036176   1.179   6.067   9.146
  647DIO     F136177   9.462   9.804  -0.763
  647DIO     C136178   9.385   9.783  -0.655
  647DIO     C236179   9.240   9.794  -0.667
  647DIO     C336180   9.152   9.775  -0.551
  647DIO     C436181   9.217   9.741  -0.422
  647DIO     C536182   9.361   9.730  -0.412
  647DIO     F236183   9.417   9.695  -0.294
  647DIO     C636184   9.445   9.751  -0.528
  647DIO     F336185   9.579   9.742  -0.517
  647DIO     C736186   9.005   9.787  -0.561
  647DIO     C836187   8.928   9.871  -0.467
  647DIO     C936188   8.783   9.882  -0.477
  647DIO    C1036189   8.711   9.803  -0.574
  647DIO    C1136190   8.783   9.725  -0.673
  647DIO    C1236191   8.927   9.715  -0.665
  647DIO     F436192   8.992   9.638  -0.754
  647DIO     O136193   8.579   9.836  -0.594
  647DIO    C1336194   8.484   9.739  -0.625
  647DIO     O236195   8.483   9.614  -0.612
  647DIO    C1436196   8.355   9.796  -0.665
  647DIO    C1536197   8.289   9.902  -0.586
  647DIO     F536198   8.351   9.956  -0.479
  647DIO    C1636199   8.158   9.955  -0.620
  647DIO    C1736200   8.082   9.899  -0.731
  647DIO    C1836201   8.151   9.807  -0.821
  647DIO    C1936202   8.283   9.755  -0.787
  647DIO     F636203   8.345   9.682  -0.882
  647DIO    C2036204   7.941   9.945  -0.761
  647DIO     O336205   7.872   9.995  -0.646
  647DIO    C2136206   7.828   9.892  -0.559
  647DIO    C2236207   7.739   9.792  -0.632
  647DIO    C2336208   7.820   9.741  -0.751
  647DIO     O436209   7.864   9.848  -0.833
  647DIO    C2436210   7.606   9.854  -0.681
  647DIO    C2536211   7.516   9.913  -0.573
  647DIO    C2636212   7.477   9.814  -0.464
  647DIO     H136213   9.198   9.818  -0.764
  647DIO     H236214   9.157   9.716  -0.336
  647DIO     H336215   8.980   9.930  -0.392
  647DIO     H436216   8.728   9.950  -0.414
  647DIO     H536217   8.729   9.670  -0.749
  647DIO     H636218   8.120  10.039  -0.563
  647DIO     H736219   8.108   9.779  -0.916
  647DIO     H836220   7.951  10.031  -0.829
  647DIO     H936221   7.915   9.842  -0.515
  647DIO    H1036222   7.775   9.939  -0.475
  647DIO    H1136223   7.717   9.708  -0.566
  647DIO    H1236224   7.759   9.674  -0.813
  647DIO    H1336225   7.906   9.682  -0.717
  647DIO    H1436226   7.626   9.933  -0.755
  647DIO    H1536227   7.550   9.776  -0.735
  647DIO    H1636228   7.563  10.000  -0.527
  647DIO    H1736229   7.424   9.949  -0.621
  647DIO    H1836230   7.433   9.723  -0.507
  647DIO    H1936231   7.564   9.785  -0.404
  647DIO    H2036232   7.404   9.858  -0.397
  648DIO     F136233   2.329  -0.299   3.052
  648DIO     C136234   2.252  -0.224   3.132
  648DIO     C236235   2.108  -0.228   3.115
  648DIO     C336236   2.019  -0.145   3.200
  648DIO     C436237   2.084  -0.060   3.302
  648DIO     C536238   2.229  -0.058   3.317
  648DIO     F236239   2.284   0.016   3.414
  648DIO     C636240   2.312  -0.140   3.232
  648DIO     F336241   2.446  -0.137   3.246
  648DIO     C736242   1.873  -0.146   3.184
  648DIO     C836243   1.795  -0.021   3.171
  648DIO     C936244   1.651  -0.022   3.155
  648DIO    C1036245   1.578  -0.147   3.163
  648DIO    C1136246   1.651  -0.273   3.168
  648DIO    C1236247   1.795  -0.272   3.181
  648DIO     F436248   1.860  -0.390   3.191
  648DIO     O136249   1.446  -0.144   3.124
  648DIO    C1336250   1.351  -0.226   3.185
  648DIO     O236251   1.351  -0.289   3.294
  648DIO    C1436252   1.222  -0.225   3.116
  648DIO    C1536253   1.156  -0.098   3.076
  648DIO     F536254   1.219   0.020   3.095
  648DIO    C1636255   1.025  -0.095   3.013
  648DIO    C1736256   0.949  -0.218   2.993
  648DIO    C1836257   1.018  -0.345   3.015
  648DIO    C1936258   1.150  -0.348   3.077
  648DIO     F636259   1.212  -0.468   3.081
  648DIO    C2036260   0.809  -0.215   2.938
  648DIO     O336261   0.739  -0.093   2.965
  648DIO    C2136262   0.695  -0.082   3.100
  648DIO    C2236263   0.606  -0.200   3.138
  648DIO    C2336264   0.687  -0.327   3.110
  648DIO     O436265   0.731  -0.330   2.974
  648DIO    C2436266   0.474  -0.204   3.059
  648DIO    C2536267   0.383  -0.082   3.075
  648DIO    C2636268   0.345  -0.052   3.219
  648DIO     H136269   2.065  -0.293   3.040
  648DIO     H236270   2.024  -0.005   3.374
  648DIO     H336271   1.847   0.074   3.167
  648DIO     H436272   1.596   0.069   3.137
  648DIO     H536273   1.596  -0.367   3.168
  648DIO     H636274   0.987   0.000   2.979
  648DIO     H736275   0.975  -0.438   2.981
  648DIO     H836276   0.818  -0.220   2.829
  648DIO     H936277   0.782  -0.077   3.166
  648DIO    H1036278   0.643   0.013   3.111
  648DIO    H1136279   0.584  -0.196   3.245
  648DIO    H1236280   0.626  -0.416   3.127
  648DIO    H1336281   0.773  -0.334   3.177
  648DIO    H1436282   0.494  -0.218   2.952
  648DIO    H1536283   0.417  -0.293   3.090
  648DIO    H1636284   0.430   0.007   3.030
  648DIO    H1736285   0.291  -0.099   3.017
  648DIO    H1836286   0.301  -0.140   3.267
  648DIO    H1936287   0.431  -0.020   3.277
  648DIO    H2036288   0.271   0.029   3.222
  649DIO     F136289   2.278   9.811   4.066
  649DIO     C136290   2.200   9.918   4.039
  649DIO     C236291   2.056   9.902   4.035
  649DIO     C336292   1.967  10.016   4.004
  649DIO     C436293   2.033  10.147   3.980
  649DIO     C536294   2.177  10.161   3.986
  649DIO     F236295   2.232  10.282   3.968
  649DIO     C636296   2.261  10.047   4.016
  649DIO     F336297   2.394  10.061   4.019
  649DIO     C736298   1.821  10.001   3.997
  649DIO     C836299   1.744  10.051   3.881
  649DIO     C936300   1.599  10.038   3.875
  649DIO    C1036301   1.526   9.983   3.988
  649DIO    C1136302   1.599   9.926   4.100
  649DIO    C1236303   1.743   9.937   4.105
  649DIO     F436304   1.808   9.889   4.213
  649DIO     O136305   1.394   9.951   3.966
  649DIO    C1336306   1.300   9.964   4.067
  649DIO     O236307   1.299  10.028   4.175
  649DIO    C1436308   1.170   9.904   4.032
  649DIO    C1536309   1.104   9.931   3.903
  649DIO     F536310   1.167  10.005   3.809
  649DIO    C1636311   0.973   9.878   3.869
  649DIO    C1736312   0.898   9.800   3.966
  649DIO    C1836313   0.966   9.757   4.087
  649DIO    C1936314   1.098   9.809   4.120
  649DIO     F636315   1.160   9.754   4.227
  649DIO    C2036316   0.757   9.754   3.937
  649DIO     O336317   0.687   9.837   3.843
  649DIO    C2136318   0.643   9.959   3.900
  649DIO    C2236319   0.555   9.935   4.022
  649DIO    C2336320   0.635   9.848   4.118
  649DIO     O436321   0.680   9.729   4.055
  649DIO    C2436322   0.422   9.864   3.986
  649DIO    C2536323   0.331   9.938   3.887
  649DIO    C2636324   0.293  10.078   3.932
  649DIO     H136325   2.013   9.804   4.054
  649DIO     H236326   1.972  10.236   3.967
  649DIO     H336327   1.795  10.095   3.796
  649DIO     H436328   1.544  10.067   3.787
  649DIO     H536329   1.544   9.880   4.182
  649DIO     H636330   0.935   9.895   3.769
  649DIO     H736331   0.923   9.682   4.152
  649DIO     H836332   0.767   9.656   3.887
  649DIO     H936333   0.730  10.020   3.928
  649DIO    H1036334   0.591  10.015   3.823
  649DIO    H1136335   0.532  10.030   4.070
  649DIO    H1236336   0.574   9.819   4.205
  649DIO    H1336337   0.721   9.904   4.158
  649DIO    H1436338   0.442   9.764   3.945
  649DIO    H1536339   0.365   9.848   4.079
  649DIO    H1636340   0.378   9.943   3.789
  649DIO    H1736341   0.239   9.879   3.874
  649DIO    H1836342   0.249  10.077   4.032
  649DIO    H1936343   0.379  10.145   3.933
  649DIO    H2036344   0.219  10.121   3.863
  650DIO     F136345   5.009   8.400   3.355
  650DIO     C136346   4.931   8.396   3.465
  650DIO     C236347   4.787   8.405   3.450
  650DIO     C336348   4.699   8.403   3.569
  650DIO     C436349   4.764   8.389   3.701
  650DIO     C536350   4.908   8.380   3.713
  650DIO     F236351   4.964   8.364   3.834
  650DIO     C636352   4.992   8.383   3.595
  650DIO     F336353   5.126   8.376   3.607
  650DIO     C736354   4.552   8.414   3.557
  650DIO     C836355   4.475   8.511   3.637
  650DIO     C936356   4.330   8.521   3.625
  650DIO    C1036357   4.258   8.428   3.541
  650DIO    C1136358   4.330   8.336   3.455
  650DIO    C1236359   4.474   8.328   3.465
  650DIO     F436360   4.539   8.238   3.388
  650DIO     O136361   4.126   8.458   3.516
  650DIO    C1336362   4.031   8.357   3.501
  650DIO     O236363   4.030   8.235   3.533
  650DIO    C1436364   3.902   8.407   3.453
  650DIO    C1536365   3.836   8.524   3.515
  650DIO     F536366   3.898   8.593   3.612
  650DIO    C1636367   3.705   8.571   3.473
  650DIO    C1736368   3.629   8.499   3.372
  650DIO    C1836369   3.698   8.395   3.297
  650DIO    C1936370   3.829   8.349   3.338
  650DIO     F636371   3.892   8.262   3.255
  650DIO    C2036372   3.488   8.540   3.335
  650DIO     O336373   3.419   8.607   3.441
  650DIO    C2136374   3.375   8.519   3.543
  650DIO    C2236375   3.286   8.409   3.485
  650DIO    C2336376   3.367   8.340   3.376
  650DIO     O436377   3.411   8.434   3.278
  650DIO    C2436378   3.153   8.462   3.428
  650DIO    C2536379   3.063   8.537   3.526
  650DIO    C2636380   3.024   8.455   3.648
  650DIO     H136381   4.745   8.414   3.351
  650DIO     H236382   4.703   8.378   3.790
  650DIO     H336383   4.527   8.581   3.702
  650DIO     H436384   4.275   8.598   3.677
  650DIO     H536385   4.276   8.270   3.389
  650DIO     H636386   3.667   8.663   3.517
  650DIO     H736387   3.655   8.353   3.207
  650DIO     H836388   3.498   8.615   3.255
  650DIO     H936389   3.462   8.475   3.594
  650DIO    H1036390   3.322   8.577   3.618
  650DIO    H1136391   3.264   8.335   3.564
  650DIO    H1236392   3.306   8.265   3.324
  650DIO    H1336393   3.453   8.286   3.418
  650DIO    H1436394   3.173   8.529   3.343
  650DIO    H1536395   3.097   8.377   3.387
  650DIO    H1636396   3.110   8.630   3.558
  650DIO    H1736397   2.971   8.566   3.473
  650DIO    H1836398   2.980   8.359   3.619
  650DIO    H1936399   3.111   8.436   3.712
  650DIO    H2036400   2.951   8.510   3.708
  651DIO     F136401   7.019   7.992   0.696
  651DIO     C136402   6.942   7.885   0.674
  651DIO     C236403   6.798   7.897   0.685
  651DIO     C336404   6.709   7.781   0.664
  651DIO     C436405   6.774   7.653   0.628
  651DIO     C536406   6.919   7.643   0.618
  651DIO     F236407   6.974   7.525   0.581
  651DIO     C636408   7.002   7.758   0.640
  651DIO     F336409   7.136   7.747   0.630
  651DIO     C736410   6.562   7.791   0.676
  651DIO     C836411   6.485   7.696   0.759
  651DIO     C936412   6.341   7.706   0.771
  651DIO    C1036413   6.268   7.804   0.692
  651DIO    C1136414   6.341   7.904   0.615
  651DIO    C1236415   6.485   7.895   0.606
  651DIO     F436416   6.550   7.986   0.530
  651DIO     O136417   6.136   7.824   0.726
  651DIO    C1336418   6.041   7.855   0.629
  651DIO     O236419   6.040   7.844   0.504
  651DIO    C1436420   5.912   7.895   0.687
  651DIO    C1536421   5.846   7.814   0.792
  651DIO     F536422   5.909   7.707   0.844
  651DIO    C1636423   5.715   7.847   0.845
  651DIO    C1736424   5.639   7.960   0.790
  651DIO    C1836425   5.708   8.050   0.699
  651DIO    C1936426   5.840   8.018   0.647
  651DIO     F636427   5.902   8.113   0.575
  651DIO    C2036428   5.499   7.989   0.837
  651DIO     O336429   5.429   7.874   0.886
  651DIO    C2136430   5.385   7.787   0.782
  651DIO    C2236431   5.296   7.862   0.683
  651DIO    C2336432   5.377   7.982   0.632
  651DIO     O436433   5.421   8.062   0.741
  651DIO    C2436434   5.164   7.911   0.745
  651DIO    C2536435   5.073   7.801   0.802
  651DIO    C2636436   5.034   7.694   0.702
  651DIO     H136437   6.755   7.994   0.710
  651DIO     H236438   6.714   7.566   0.602
  651DIO     H336439   6.537   7.621   0.817
  651DIO     H436440   6.286   7.642   0.838
  651DIO     H536441   6.286   7.980   0.561
  651DIO     H636442   5.677   7.789   0.928
  651DIO     H736443   5.665   8.146   0.673
  651DIO     H836444   5.508   8.056   0.923
  651DIO     H936445   5.472   7.744   0.730
  651DIO    H1036446   5.332   7.703   0.827
  651DIO    H1136447   5.274   7.797   0.598
  651DIO    H1236448   5.316   8.045   0.567
  651DIO    H1336449   5.463   7.949   0.573
  651DIO    H1436450   5.183   7.983   0.825
  651DIO    H1536451   5.107   7.965   0.668
  651DIO    H1636452   5.120   7.754   0.889
  651DIO    H1736453   4.981   7.849   0.839
  651DIO    H1836454   4.991   7.738   0.612
  651DIO    H1936455   5.121   7.634   0.672
  651DIO    H2036456   4.961   7.626   0.746
  652DIO     F136457  10.059   6.771   6.184
  652DIO     C136458   9.981   6.848   6.262
  652DIO     C236459   9.837   6.844   6.246
  652DIO     C336460   9.748   6.929   6.328
  652DIO     C436461   9.814   7.016   6.429
  652DIO     C536462   9.958   7.018   6.443
  652DIO     F236463  10.013   7.095   6.539
  652DIO     C636464  10.042   6.934   6.361
  652DIO     F336465  10.175   6.938   6.375
  652DIO     C736466   9.602   6.927   6.312
  652DIO     C836467   9.525   7.053   6.296
  652DIO     C936468   9.380   7.051   6.281
  652DIO    C1036469   9.307   6.926   6.292
  652DIO    C1136470   9.380   6.800   6.300
  652DIO    C1236471   9.524   6.802   6.312
  652DIO     F436472   9.589   6.684   6.325
  652DIO     O136473   9.175   6.928   6.253
  652DIO    C1336474   9.081   6.848   6.316
  652DIO     O236475   9.080   6.787   6.426
  652DIO    C1436476   8.951   6.847   6.246
  652DIO    C1536477   8.885   6.972   6.204
  652DIO     F536478   8.948   7.091   6.220
  652DIO    C1636479   8.754   6.975   6.141
  652DIO    C1736480   8.679   6.851   6.123
  652DIO    C1836481   8.747   6.725   6.149
  652DIO    C1936482   8.879   6.723   6.210
  652DIO     F636483   8.941   6.604   6.217
  652DIO    C2036484   8.538   6.853   6.069
  652DIO     O336485   8.468   6.975   6.092
  652DIO    C2136486   8.424   6.989   6.227
  652DIO    C2236487   8.336   6.872   6.267
  652DIO    C2336488   8.416   6.745   6.242
  652DIO     O436489   8.461   6.738   6.107
  652DIO    C2436490   8.203   6.866   6.189
  652DIO    C2536491   8.112   6.989   6.202
  652DIO    C2636492   8.074   7.022   6.345
  652DIO     H136493   9.794   6.778   6.172
  652DIO     H236494   9.753   7.073   6.499
  652DIO     H336495   9.576   7.147   6.290
  652DIO     H436496   9.325   7.142   6.261
  652DIO     H536497   9.325   6.707   6.302
  652DIO     H636498   8.716   7.069   6.104
  652DIO     H736499   8.704   6.631   6.117
  652DIO     H836500   8.548   6.845   5.960
  652DIO     H936501   8.511   6.996   6.293
  652DIO    H1036502   8.372   7.084   6.235
  652DIO    H1136503   8.313   6.879   6.374
  652DIO    H1236504   8.355   6.656   6.262
  652DIO    H1336505   8.502   6.739   6.310
  652DIO    H1436506   8.223   6.851   6.082
  652DIO    H1536507   8.146   6.779   6.222
  652DIO    H1636508   8.159   7.077   6.156
  652DIO    H1736509   8.020   6.970   6.145
  652DIO    H1836510   8.030   6.936   6.395
  652DIO    H1936511   8.160   7.056   6.403
  652DIO    H2036512   8.000   7.103   6.346
  653DIO     F136513   3.158   1.000   9.003
  653DIO     C136514   3.080   0.955   8.902
  653DIO     C236515   2.936   0.954   8.919
  653DIO     C336516   2.847   0.903   8.811
  653DIO     C436517   2.913   0.858   8.686
  653DIO     C536518   3.057   0.861   8.672
  653DIO     F236519   3.113   0.823   8.555
  653DIO     C636520   3.141   0.910   8.779
  653DIO     F336521   3.275   0.911   8.765
  653DIO     C736522   2.701   0.900   8.827
  653DIO     C836523   2.624   0.777   8.798
  653DIO     C936524   2.479   0.773   8.812
  653DIO    C1036525   2.407   0.894   8.847
  653DIO    C1136526   2.479   1.014   8.884
  653DIO    C1236527   2.623   1.017   8.872
  653DIO     F436528   2.688   1.131   8.901
  653DIO     O136529   2.274   0.877   8.882
  653DIO    C1336530   2.180   0.975   8.852
  653DIO     O236531   2.179   1.071   8.770
  653DIO    C1436532   2.051   0.951   8.917
  653DIO    C1536533   1.985   0.819   8.913
  653DIO     F536534   2.047   0.714   8.855
  653DIO    C1636535   1.854   0.794   8.971
  653DIO    C1736536   1.778   0.904   9.031
  653DIO    C1836537   1.847   1.030   9.052
  653DIO    C1936538   1.978   1.054   8.995
  653DIO     F636539   2.041   1.168   9.031
  653DIO    C2036540   1.637   0.883   9.081
  653DIO     O336541   1.568   0.776   9.016
  653DIO    C2136542   1.524   0.811   8.885
  653DIO    C2236543   1.435   0.935   8.889
  653DIO    C2336544   1.516   1.045   8.957
  653DIO     O436545   1.560   1.003   9.086
  653DIO    C2436546   1.302   0.912   8.964
  653DIO    C2536547   1.212   0.802   8.908
  653DIO    C2636548   1.173   0.822   8.763
  653DIO     H136549   2.894   0.989   9.012
  653DIO     H236550   2.852   0.830   8.601
  653DIO     H336551   2.675   0.686   8.769
  653DIO     H436552   2.424   0.681   8.799
  653DIO     H536553   2.425   1.102   8.915
  653DIO     H636554   1.816   0.693   8.971
  653DIO     H736555   1.804   1.107   9.115
  653DIO     H836556   1.647   0.851   9.186
  653DIO     H936557   1.611   0.828   8.820
  653DIO    H1036558   1.471   0.725   8.843
  653DIO    H1136559   1.412   0.967   8.786
  653DIO    H1236560   1.455   1.135   8.971
  653DIO    H1336561   1.602   1.075   8.896
  653DIO    H1436562   1.322   0.889   9.070
  653DIO    H1536563   1.246   1.006   8.964
  653DIO    H1636564   1.259   0.704   8.921
  653DIO    H1736565   1.120   0.799   8.968
  653DIO    H1836566   1.129   0.921   8.746
  653DIO    H1936567   1.260   0.812   8.696
  653DIO    H2036568   1.099   0.747   8.733
  654DIO     F136569   7.936   1.274   8.008
  654DIO     C136570   7.859   1.368   7.951
  654DIO     C236571   7.715   1.351   7.951
  654DIO     C336572   7.626   1.451   7.887
  654DIO     C436573   7.691   1.569   7.826
  654DIO     C536574   7.836   1.584   7.827
  654DIO     F236575   7.891   1.694   7.774
  654DIO     C636576   7.919   1.484   7.890
  654DIO     F336577   8.053   1.498   7.889
  654DIO     C736578   7.480   1.435   7.886
  654DIO     C836579   7.402   1.448   7.760
  654DIO     C936580   7.258   1.433   7.758
  654DIO    C1036581   7.185   1.415   7.883
  654DIO    C1136582   7.258   1.394   8.007
  654DIO    C1236583   7.402   1.407   8.008
  654DIO     F436584   7.467   1.392   8.125
  654DIO     O136585   7.053   1.377   7.871
  654DIO    C1336586   6.958   1.420   7.964
  654DIO     O236587   6.958   1.514   8.048
  654DIO    C1436588   6.829   1.352   7.948
  654DIO    C1536589   6.763   1.340   7.817
  654DIO     F536590   6.826   1.383   7.705
  654DIO    C1636591   6.632   1.279   7.800
  654DIO    C1736592   6.556   1.234   7.917
  654DIO    C1836593   6.625   1.230   8.045
  654DIO    C1936594   6.757   1.289   8.061
  654DIO     F636595   6.819   1.268   8.179
  654DIO    C2036596   6.416   1.181   7.902
  654DIO     O336597   6.346   1.232   7.788
  654DIO    C2136598   6.302   1.366   7.806
  654DIO    C2236599   6.213   1.379   7.929
  654DIO    C2336600   6.294   1.325   8.047
  654DIO     O436601   6.338   1.192   8.022
  654DIO    C2436602   6.081   1.301   7.916
  654DIO    C2536603   5.990   1.342   7.800
  654DIO    C2636604   5.952   1.489   7.801
  654DIO     H136605   7.672   1.264   7.999
  654DIO     H236606   7.631   1.650   7.787
  654DIO     H336607   7.454   1.464   7.666
  654DIO     H436608   7.203   1.434   7.665
  654DIO     H536609   7.203   1.375   8.098
  654DIO     H636610   6.594   1.265   7.700
  654DIO     H736611   6.582   1.177   8.129
  654DIO     H836612   6.425   1.073   7.884
  654DIO     H936613   6.389   1.433   7.814
  654DIO    H1036614   6.250   1.396   7.715
  654DIO    H1136615   6.191   1.485   7.947
  654DIO    H1236616   6.233   1.324   8.138
  654DIO    H1336617   6.380   1.390   8.068
  654DIO    H1436618   6.101   1.193   7.907
  654DIO    H1536619   6.024   1.314   8.010
  654DIO    H1636620   6.037   1.317   7.704
  654DIO    H1736621   5.898   1.282   7.805
  654DIO    H1836622   5.908   1.518   7.897
  654DIO    H1936623   6.038   1.553   7.781
  654DIO    H2036624   5.878   1.509   7.722
  655DIO     F136625   3.311   9.313   9.132
  655DIO     C136626   3.234   9.239   9.213
  655DIO     C236627   3.090   9.255   9.208
  655DIO     C336628   3.001   9.177   9.297
  655DIO     C436629   3.066   9.081   9.389
  655DIO     C536630   3.211   9.067   9.392
  655DIO     F236631   3.266   8.976   9.474
  655DIO     C636632   3.294   9.145   9.304
  655DIO     F336633   3.428   9.132   9.309
  655DIO     C736634   2.855   9.193   9.294
  655DIO     C836635   2.777   9.216   9.419
  655DIO     C936636   2.633   9.231   9.416
  655DIO    C1036637   2.560   9.214   9.292
  655DIO    C1136638   2.633   9.199   9.167
  655DIO    C1236639   2.777   9.187   9.169
  655DIO     F436640   2.842   9.167   9.052
  655DIO     O136641   2.428   9.253   9.292
  655DIO    C1336642   2.333   9.186   9.215
  655DIO     O236643   2.333   9.072   9.161
  655DIO    C1436644   2.204   9.255   9.211
  655DIO    C1536645   2.138   9.304   9.334
  655DIO     F536646   2.201   9.294   9.453
  655DIO    C1636647   2.007   9.367   9.332
  655DIO    C1736648   1.931   9.378   9.208
  655DIO    C1836649   2.000   9.346   9.084
  655DIO    C1936650   2.132   9.285   9.085
  655DIO     F636651   2.194   9.271   8.966
  655DIO    C2036652   1.791   9.433   9.207
  655DIO     O336653   1.721   9.416   9.331
  655DIO    C2136654   1.677   9.282   9.352
  655DIO    C2236655   1.588   9.235   9.237
  655DIO    C2336656   1.669   9.253   9.108
  655DIO     O436657   1.713   9.388   9.095
  655DIO    C2436658   1.456   9.314   9.227
  655DIO    C2536659   1.365   9.307   9.350
  655DIO    C2636660   1.327   9.166   9.391
  655DIO     H136661   3.047   9.326   9.138
  655DIO     H236662   3.006   9.015   9.450
  655DIO     H336663   2.829   9.227   9.513
  655DIO     H436664   2.578   9.256   9.506
  655DIO     H536665   2.578   9.192   9.073
  655DIO     H636666   1.969   9.409   9.425
  655DIO     H736667   1.957   9.373   8.988
  655DIO     H836668   1.800   9.541   9.194
  655DIO     H936669   1.764   9.216   9.362
  655DIO    H1036670   1.625   9.278   9.447
  655DIO    H1136671   1.566   9.129   9.249
  655DIO    H1236672   1.608   9.230   9.021
  655DIO    H1336673   1.755   9.185   9.106
  655DIO    H1436674   1.476   9.419   9.206
  655DIO    H1536675   1.399   9.275   9.141
  655DIO    H1636676   1.412   9.358   9.435
  655DIO    H1736677   1.273   9.363   9.329
  655DIO    H1836678   1.283   9.111   9.307
  655DIO    H1936679   1.413   9.109   9.428
  655DIO    H2036680   1.253   9.169   9.472
  656DIO     F136681   1.150   5.893   4.951
  656DIO     C136682   1.072   5.787   4.921
  656DIO     C236683   0.928   5.799   4.933
  656DIO     C336684   0.839   5.684   4.903
  656DIO     C436685   0.905   5.559   4.859
  656DIO     C536686   1.049   5.550   4.847
  656DIO     F236687   1.104   5.436   4.803
  656DIO     C636688   1.133   5.664   4.878
  656DIO     F336689   1.266   5.653   4.868
  656DIO     C736690   0.693   5.694   4.916
  656DIO     C836691   0.616   5.593   4.992
  656DIO     C936692   0.471   5.602   5.005
  656DIO    C1036693   0.398   5.706   4.934
  656DIO    C1136694   0.471   5.811   4.864
  656DIO    C1236695   0.615   5.803   4.854
  656DIO     F436696   0.680   5.899   4.785
  656DIO     O136697   0.266   5.723   4.969
  656DIO    C1336698   0.172   5.761   4.874
  656DIO     O236699   0.171   5.759   4.748
  656DIO    C1436700   0.042   5.796   4.934
  656DIO    C1536701  -0.024   5.708   5.033
  656DIO     F536702   0.039   5.598   5.078
  656DIO    C1636703  -0.155   5.738   5.089
  656DIO    C1736704  -0.230   5.854   5.043
  656DIO    C1836705  -0.162   5.951   4.958
  656DIO    C1936706  -0.030   5.922   4.904
  656DIO     F636707   0.032   6.022   4.839
  656DIO    C2036708  -0.371   5.879   5.091
  656DIO     O336709  -0.441   5.761   5.132
  656DIO    C2136710  -0.485   5.683   5.021
  656DIO    C2236711  -0.573   5.764   4.928
  656DIO    C2336712  -0.493   5.887   4.887
  656DIO     O436713  -0.448   5.960   5.001
  656DIO    C2436714  -0.706   5.808   4.994
  656DIO    C2536715  -0.797   5.695   5.043
  656DIO    C2636716  -0.835   5.595   4.935
  656DIO     H136717   0.885   5.894   4.965
  656DIO     H236718   0.844   5.475   4.826
  656DIO     H336719   0.667   5.513   5.044
  656DIO     H436720   0.416   5.533   5.067
  656DIO     H536721   0.416   5.891   4.816
  656DIO     H636722  -0.193   5.674   5.168
  656DIO     H736723  -0.205   6.048   4.939
  656DIO     H836724  -0.361   5.940   5.182
  656DIO     H936725  -0.398   5.643   4.967
  656DIO    H1036726  -0.537   5.595   5.061
  656DIO    H1136727  -0.596   5.705   4.839
  656DIO    H1236728  -0.554   5.955   4.826
  656DIO    H1336729  -0.407   5.858   4.825
  656DIO    H1436730  -0.686   5.875   5.079
  656DIO    H1536731  -0.763   5.868   4.921
  656DIO    H1636732  -0.750   5.642   5.127
  656DIO    H1736733  -0.889   5.739   5.084
  656DIO    H1836734  -0.879   5.646   4.848
  656DIO    H1936735  -0.749   5.537   4.901
  656DIO    H2036736  -0.909   5.524   4.974
  657DIO     F136737   5.576  10.063   7.319
  657DIO     C136738   5.498   9.963   7.365
  657DIO     C236739   5.354   9.980   7.367
  657DIO     C336740   5.265   9.873   7.418
  657DIO     C436741   5.331   9.749   7.464
  657DIO     C536742   5.475   9.734   7.461
  657DIO     F236743   5.530   9.618   7.501
  657DIO     C636744   5.559   9.841   7.411
  657DIO     F336745   5.692   9.826   7.410
  657DIO     C736746   5.119   9.889   7.422
  657DIO     C836747   5.042   9.860   7.545
  657DIO     C936748   4.897   9.875   7.548
  657DIO    C1036749   4.824   9.909   7.427
  657DIO    C1136750   4.897   9.944   7.306
  657DIO    C1236751   5.041   9.932   7.304
  657DIO     F436752   5.106   9.961   7.189
  657DIO     O136753   4.692   9.944   7.443
  657DIO    C1336754   4.598   9.913   7.346
  657DIO     O236755   4.597   9.830   7.251
  657DIO    C1436756   4.469   9.979   7.369
  657DIO    C1536757   4.402   9.975   7.502
  657DIO     F536758   4.465   9.919   7.607
  657DIO    C1636759   4.271  10.033   7.525
  657DIO    C1736760   4.196  10.092   7.415
  657DIO    C1836761   4.264  10.112   7.288
  657DIO    C1936762   4.396  10.055   7.265
  657DIO     F636763   4.459  10.090   7.151
  657DIO    C2036764   4.055  10.143   7.436
  657DIO     O336765   3.985  10.079   7.543
  657DIO    C2136766   3.942   9.948   7.509
  657DIO    C2236767   3.853   9.950   7.385
  657DIO    C2336768   3.933  10.017   7.274
  657DIO     O436769   3.978  10.146   7.315
  657DIO    C2436770   3.720  10.026   7.407
  657DIO    C2536771   3.629   9.971   7.518
  657DIO    C2636772   3.591   9.825   7.499
  657DIO     H136773   5.311  10.072   7.330
  657DIO     H236774   5.270   9.663   7.494
  657DIO     H336775   5.093   9.833   7.636
  657DIO     H436776   4.842   9.863   7.640
  657DIO     H536777   4.842   9.974   7.218
  657DIO     H636778   4.233  10.035   7.627
  657DIO     H736779   4.222  10.175   7.211
  657DIO     H836780   4.065  10.248   7.467
  657DIO     H936781   4.028   9.883   7.493
  657DIO    H1036782   3.889   9.907   7.596
  657DIO    H1136783   3.830   9.847   7.355
  657DIO    H1236784   3.872  10.030   7.184
  657DIO    H1336785   4.020   9.956   7.246
  657DIO    H1436786   3.740  10.131   7.429
  657DIO    H1536787   3.663  10.024   7.313
  657DIO    H1636788   3.677   9.984   7.616
  657DIO    H1736789   3.537  10.031   7.520
  657DIO    H1836790   3.547   9.808   7.401
  657DIO    H1936791   3.677   9.759   7.511
  657DIO    H2036792   3.517   9.796   7.575
  658DIO     F136793   7.106   5.754   9.677
  658DIO     C136794   7.028   5.674   9.753
  658DIO     C236795   6.884   5.691   9.749
  658DIO     C336796   6.795   5.607   9.833
  658DIO     C436797   6.861   5.505   9.918
  658DIO     C536798   7.005   5.491   9.920
  658DIO     F236799   7.061   5.394   9.996
  658DIO     C636800   7.089   5.574   9.838
  658DIO     F336801   7.223   5.561   9.842
  658DIO     C736802   6.649   5.623   9.831
  658DIO     C836803   6.572   5.638   9.957
  658DIO     C936804   6.427   5.653   9.955
  658DIO    C1036805   6.355   5.644   9.830
  658DIO    C1136806   6.427   5.637   9.704
  658DIO    C1236807   6.571   5.625   9.706
  658DIO     F436808   6.636   5.613   9.588
  658DIO     O136809   6.222   5.683   9.833
  658DIO    C1336810   6.128   5.621   9.752
  658DIO     O236811   6.127   5.511   9.690
  658DIO    C1436812   5.999   5.691   9.752
  658DIO    C1536813   5.932   5.731   9.878
  658DIO     F536814   5.995   5.713   9.996
  658DIO    C1636815   5.802   5.794   9.881
  658DIO    C1736816   5.726   5.813   9.758
  658DIO    C1836817   5.795   5.790   9.631
  658DIO    C1936818   5.926   5.728   9.629
  658DIO     F636819   5.989   5.723   9.509
  658DIO    C2036820   5.585   5.868   9.760
  658DIO     O336821   5.515   5.843   9.883
  658DIO    C2136822   5.472   5.708   9.894
  658DIO    C2236823   5.383   5.669   9.777
  658DIO    C2336824   5.464   5.695   9.650
  658DIO     O436825   5.508   5.831   9.645
  658DIO    C2436826   5.250   5.748   9.772
  658DIO    C2536827   5.159   5.733   9.895
  658DIO    C2636828   5.121   5.589   9.926
  658DIO     H136829   6.842   5.766   9.684
  658DIO     H236830   6.800   5.435   9.974
  658DIO     H336831   6.623   5.642  10.052
  658DIO     H436832   6.372   5.672  10.046
  658DIO     H536833   6.373   5.636   9.611
  658DIO     H636834   5.764   5.829   9.976
  658DIO     H736835   5.752   5.823   9.538
  658DIO     H836836   5.595   5.977   9.754
  658DIO     H936837   5.558   5.641   9.901
  658DIO    H1036838   5.419   5.698   9.990
  658DIO    H1136839   5.360   5.562   9.782
  658DIO    H1236840   5.403   5.678   9.561
  658DIO    H1336841   5.550   5.628   9.643
  658DIO    H1436842   5.270   5.855   9.758
  658DIO    H1536843   5.194   5.715   9.684
  658DIO    H1636844   5.207   5.778   9.983
  658DIO    H1736845   5.068   5.790   9.877
  658DIO    H1836846   5.077   5.540   9.839
  658DIO    H1936847   5.208   5.531   9.959
  658DIO    H2036848   5.047   5.587  10.007
  659DIO     F136849   9.516   7.404   9.129
  659DIO     C136850   9.438   7.296   9.108
  659DIO     C236851   9.294   7.309   9.119
  659DIO     C336852   9.206   7.192   9.099
  659DIO     C436853   9.271   7.064   9.065
  659DIO     C536854   9.415   7.054   9.054
  659DIO     F236855   9.471   6.936   9.019
  659DIO     C636856   9.499   7.170   9.075
  659DIO     F336857   9.633   7.159   9.066
  659DIO     C736858   9.059   7.203   9.111
  659DIO     C836859   8.982   7.109   9.195
  659DIO     C936860   8.837   7.119   9.207
  659DIO    C1036861   8.765   7.216   9.127
  659DIO    C1136862   8.837   7.315   9.049
  659DIO    C1236863   8.981   7.307   9.040
  659DIO     F436864   9.046   7.396   8.963
  659DIO     O136865   8.633   7.236   9.161
  659DIO    C1336866   8.538   7.267   9.063
  659DIO     O236867   8.537   7.254   8.938
  659DIO    C1436868   8.409   7.307   9.121
  659DIO    C1536869   8.343   7.227   9.226
  659DIO     F536870   8.405   7.120   9.280
  659DIO    C1636871   8.212   7.261   9.279
  659DIO    C1736872   8.136   7.373   9.224
  659DIO    C1836873   8.205   7.462   9.132
  659DIO    C1936874   8.336   7.429   9.080
  659DIO     F636875   8.399   7.524   9.007
  659DIO    C2036876   7.995   7.402   9.270
  659DIO     O336877   7.926   7.288   9.320
  659DIO    C2136878   7.882   7.200   9.217
  659DIO    C2236879   7.793   7.274   9.117
  659DIO    C2336880   7.874   7.393   9.066
  659DIO     O436881   7.918   7.475   9.174
  659DIO    C2436882   7.660   7.323   9.179
  659DIO    C2536883   7.570   7.214   9.237
  659DIO    C2636884   7.531   7.106   9.138
  659DIO     H136885   9.252   7.406   9.143
  659DIO     H236886   9.210   6.978   9.039
  659DIO     H336887   9.034   7.034   9.254
  659DIO     H436888   8.782   7.055   9.275
  659DIO     H536889   8.783   7.391   8.995
  659DIO     H636890   8.174   7.204   9.363
  659DIO     H736891   8.162   7.558   9.105
  659DIO     H836892   8.005   7.470   9.356
  659DIO     H936893   7.969   7.157   9.166
  659DIO    H1036894   7.829   7.117   9.263
  659DIO    H1136895   7.771   7.208   9.033
  659DIO    H1236896   7.813   7.456   9.000
  659DIO    H1336897   7.960   7.359   9.007
  659DIO    H1436898   7.680   7.396   9.258
  659DIO    H1536899   7.604   7.376   9.101
  659DIO    H1636900   7.617   7.168   9.325
  659DIO    H1736901   7.478   7.262   9.274
  659DIO    H1836902   7.487   7.149   9.047
  659DIO    H1936903   7.618   7.046   9.109
  659DIO    H2036904   7.458   7.038   9.182
  660DIO     F136905   3.860   4.286   6.123
  660DIO     C136906   3.783   4.366   6.047
  660DIO     C236907   3.639   4.350   6.051
  660DIO     C336908   3.550   4.434   5.968
  660DIO     C436909   3.615   4.537   5.884
  660DIO     C536910   3.760   4.552   5.882
  660DIO     F236911   3.815   4.649   5.807
  660DIO     C636912   3.843   4.467   5.964
  660DIO     F336913   3.977   4.481   5.960
  660DIO     C736914   3.403   4.418   5.970
  660DIO     C836915   3.326   4.405   5.844
  660DIO     C936916   3.182   4.390   5.845
  660DIO    C1036917   3.109   4.398   5.971
  660DIO    C1136918   3.181   4.403   6.097
  660DIO    C1236919   3.326   4.415   6.095
  660DIO     F436920   3.390   4.425   6.213
  660DIO     O136921   2.977   4.359   5.967
  660DIO    C1336922   2.882   4.420   6.049
  660DIO     O236923   2.881   4.529   6.112
  660DIO    C1436924   2.753   4.350   6.048
  660DIO    C1536925   2.687   4.311   5.922
  660DIO     F536926   2.749   4.330   5.804
  660DIO    C1636927   2.556   4.248   5.918
  660DIO    C1736928   2.480   4.228   6.041
  660DIO    C1836929   2.549   4.250   6.168
  660DIO    C1936930   2.681   4.311   6.171
  660DIO     F636931   2.743   4.315   6.291
  660DIO    C2036932   2.340   4.173   6.038
  660DIO     O336933   2.270   4.199   5.916
  660DIO    C2136934   2.226   4.334   5.906
  660DIO    C2236935   2.137   4.372   6.024
  660DIO    C2336936   2.218   4.344   6.150
  660DIO     O436937   2.262   4.209   6.153
  660DIO    C2436938   2.004   4.293   6.027
  660DIO    C2536939   1.914   4.309   5.905
  660DIO    C2636940   1.875   4.453   5.875
  660DIO     H136941   3.596   4.274   6.116
  660DIO     H236942   3.555   4.608   5.829
  660DIO     H336943   3.378   4.402   5.749
  660DIO     H436944   3.126   4.372   5.754
  660DIO     H536945   3.127   4.403   6.190
  660DIO     H636946   2.518   4.214   5.823
  660DIO     H736947   2.506   4.216   6.261
  660DIO     H836948   2.349   4.064   6.043
  660DIO     H936949   2.313   4.401   5.900
  660DIO    H1036950   2.173   4.345   5.811
  660DIO    H1136951   2.115   4.479   6.020
  660DIO    H1236952   2.157   4.361   6.240
  660DIO    H1336953   2.304   4.412   6.158
  660DIO    H1436954   2.024   4.186   6.041
  660DIO    H1536955   1.948   4.325   6.116
  660DIO    H1636956   1.961   4.265   5.816
  660DIO    H1736957   1.822   4.252   5.922
  660DIO    H1836958   1.831   4.502   5.963
  660DIO    H1936959   1.962   4.512   5.843
  660DIO    H2036960   1.802   4.457   5.794
  661DIO     F136961   3.928   7.256   6.471
  661DIO     C136962   3.850   7.334   6.393
  661DIO     C236963   3.706   7.318   6.397
  661DIO     C336964   3.617   7.399   6.311
  661DIO     C436965   3.683   7.499   6.224
  661DIO     C536966   3.827   7.514   6.221
  661DIO     F236967   3.883   7.609   6.143
  661DIO     C636968   3.911   7.432   6.306
  661DIO     F336969   4.045   7.446   6.302
  661DIO     C736970   3.471   7.383   6.313
  661DIO     C836971   3.394   7.366   6.188
  661DIO     C936972   3.249   7.351   6.190
  661DIO    C1036973   3.177   7.363   6.315
  661DIO    C1136974   3.249   7.372   6.441
  661DIO    C1236975   3.393   7.384   6.439
  661DIO     F436976   3.458   7.398   6.556
  661DIO     O136977   3.044   7.324   6.313
  661DIO    C1336978   2.950   7.387   6.393
  661DIO     O236979   2.949   7.498   6.452
  661DIO    C1436980   2.821   7.318   6.394
  661DIO    C1536981   2.754   7.274   6.269
  661DIO     F536982   2.817   7.289   6.150
  661DIO    C1636983   2.624   7.211   6.268
  661DIO    C1736984   2.548   7.195   6.391
  661DIO    C1836985   2.617   7.221   6.517
  661DIO    C1936986   2.748   7.283   6.518
  661DIO     F636987   2.811   7.291   6.638
  661DIO    C2036988   2.407   7.140   6.390
  661DIO     O336989   2.337   7.163   6.267
  661DIO    C2136990   2.294   7.297   6.252
  661DIO    C2236991   2.205   7.339   6.369
  661DIO    C2336992   2.286   7.315   6.497
  661DIO     O436993   2.330   7.180   6.504
  661DIO    C2436994   2.072   7.260   6.375
  661DIO    C2536995   1.981   7.272   6.252
  661DIO    C2636996   1.943   7.415   6.218
  661DIO     H136997   3.664   7.244   6.464
  661DIO     H236998   3.622   7.569   6.166
  661DIO     H336999   3.445   7.359   6.093
  661DIO     H437000   3.194   7.330   6.099
  661DIO     H537001   3.195   7.375   6.534
  661DIO     H637002   2.586   7.174   6.173
  661DIO     H737003   2.574   7.191   6.612
  661DIO     H837004   2.417   7.031   6.398
  661DIO     H937005   2.380   7.364   6.244
  661DIO    H1037006   2.241   7.305   6.157
  661DIO    H1137007   2.182   7.446   6.361
  661DIO    H1237008   2.225   7.335   6.585
  661DIO    H1337009   2.372   7.383   6.502
  661DIO    H1437010   2.092   7.154   6.392
  661DIO    H1537011   2.016   7.295   6.463
  661DIO    H1637012   2.029   7.225   6.165
  661DIO    H1737013   1.890   7.215   6.272
  661DIO    H1837014   1.899   7.466   6.304
  661DIO    H1937015   2.030   7.473   6.184
  661DIO    H2037016   1.869   7.416   6.137
  662DIO     F137017   3.975   0.047   6.667
  662DIO     C137018   3.897   0.112   6.578
  662DIO     C237019   3.753   0.097   6.585
  662DIO     C337020   3.664   0.165   6.488
  662DIO     C437021   3.730   0.250   6.386
  662DIO     C537022   3.874   0.264   6.381
  662DIO     F237023   3.929   0.346   6.290
  662DIO     C637024   3.958   0.196   6.477
  662DIO     F337025   4.091   0.209   6.471
  662DIO     C737026   3.518   0.149   6.492
  662DIO     C837027   3.441   0.113   6.371
  662DIO     C937028   3.296   0.099   6.375
  662DIO    C1037029   3.223   0.129   6.497
  662DIO    C1137030   3.296   0.157   6.620
  662DIO    C1237031   3.440   0.169   6.616
  662DIO     F437032   3.505   0.201   6.730
  662DIO     O137033   3.091   0.090   6.501
  662DIO    C1337034   2.997   0.165   6.570
  662DIO     O237035   2.996   0.284   6.612
  662DIO    C1437036   2.868   0.097   6.582
  662DIO    C1537037   2.801   0.035   6.465
  662DIO     F537038   2.864   0.032   6.345
  662DIO    C1637039   2.670  -0.028   6.473
  662DIO    C1737040   2.595  -0.025   6.597
  662DIO    C1837041   2.663   0.020   6.718
  662DIO    C1937042   2.795   0.081   6.710
  662DIO     F637043   2.858   0.107   6.827
  662DIO    C2037044   2.454  -0.079   6.605
  662DIO     O337045   2.384  -0.076   6.480
  662DIO    C2137046   2.341   0.055   6.445
  662DIO    C2237047   2.252   0.114   6.554
  662DIO    C2337048   2.332   0.110   6.683
  662DIO     O437049   2.377  -0.023   6.711
  662DIO    C2437050   2.119   0.037   6.572
  662DIO    C2537051   2.028   0.030   6.448
  662DIO    C2637052   1.990   0.166   6.393
  662DIO     H137053   3.710   0.034   6.662
  662DIO     H237054   3.669   0.310   6.318
  662DIO     H337055   3.492   0.092   6.278
  662DIO     H437056   3.241   0.064   6.289
  662DIO     H537057   3.241   0.175   6.711
  662DIO     H637058   2.632  -0.079   6.385
  662DIO     H737059   2.621   0.004   6.816
  662DIO     H837060   2.464  -0.186   6.629
  662DIO     H937061   2.427   0.119   6.427
  662DIO    H1037062   2.288   0.048   6.349
  662DIO    H1137063   2.229   0.218   6.530
  662DIO    H1237064   2.271   0.143   6.768
  662DIO    H1337065   2.419   0.177   6.678
  662DIO    H1437066   2.139  -0.066   6.605
  662DIO    H1537067   2.062   0.084   6.653
  662DIO    H1637068   2.076  -0.029   6.370
  662DIO    H1737069   1.936  -0.023   6.476
  662DIO    H1837070   1.946   0.230   6.470
  662DIO    H1937071   2.076   0.218   6.350
  662DIO    H2037072   1.916   0.155   6.313
  663DIO     F137073   3.251   7.149   8.772
  663DIO     C137074   3.173   7.232   8.844
  663DIO     C237075   3.029   7.227   8.827
  663DIO     C337076   2.940   7.318   8.903
  663DIO     C437077   3.006   7.412   8.996
  663DIO     C537078   3.150   7.416   9.011
  663DIO     F237079   3.206   7.500   9.100
  663DIO     C637080   3.234   7.326   8.935
  663DIO     F337081   3.368   7.331   8.948
  663DIO     C737082   2.794   7.315   8.887
  663DIO     C837083   2.717   7.438   8.861
  663DIO     C937084   2.572   7.435   8.846
  663DIO    C1037085   2.500   7.311   8.867
  663DIO    C1137086   2.572   7.187   8.885
  663DIO    C1237087   2.716   7.190   8.897
  663DIO     F437088   2.781   7.074   8.920
  663DIO     O137089   2.367   7.311   8.828
  663DIO    C1337090   2.273   7.236   8.897
  663DIO     O237091   2.272   7.185   9.012
  663DIO    C1437092   2.144   7.230   8.827
  663DIO    C1537093   2.078   7.351   8.775
  663DIO     F537094   2.140   7.471   8.782
  663DIO    C1637095   1.947   7.348   8.712
  663DIO    C1737096   1.871   7.224   8.705
  663DIO    C1837097   1.940   7.100   8.740
  663DIO    C1937098   2.071   7.103   8.802
  663DIO     F637099   2.134   6.985   8.818
  663DIO    C2037100   1.730   7.221   8.650
  663DIO     O337101   1.661   7.345   8.664
  663DIO    C2137102   1.617   7.370   8.797
  663DIO    C2237103   1.528   7.256   8.847
  663DIO    C2337104   1.609   7.127   8.832
  663DIO     O437105   1.653   7.110   8.698
  663DIO    C2437106   1.395   7.244   8.769
  663DIO    C2537107   1.305   7.368   8.772
  663DIO    C2637108   1.266   7.412   8.912
  663DIO     H137109   2.987   7.154   8.759
  663DIO     H237110   2.945   7.475   9.061
  663DIO     H337111   2.768   7.533   8.848
  663DIO     H437112   2.517   7.524   8.819
  663DIO     H537113   2.518   7.094   8.895
  663DIO     H637114   1.909   7.439   8.668
  663DIO     H737115   1.897   7.004   8.716
  663DIO     H837116   1.740   7.205   8.542
  663DIO     H937117   1.704   7.382   8.863
  663DIO    H1037118   1.564   7.465   8.798
  663DIO    H1137119   1.505   7.272   8.953
  663DIO    H1237120   1.548   7.040   8.858
  663DIO    H1337121   1.695   7.127   8.900
  663DIO    H1437122   1.415   7.220   8.664
  663DIO    H1537123   1.339   7.159   8.809
  663DIO    H1637124   1.352   7.451   8.719
  663DIO    H1737125   1.213   7.344   8.716
  663DIO    H1837126   1.222   7.330   8.969
  663DIO    H1937127   1.353   7.450   8.967
  663DIO    H2037128   1.192   7.493   8.907
  664DIO     F137129   5.880   6.483   1.096
  664DIO     C137130   5.803   6.490   0.986
  664DIO     C237131   5.659   6.480   1.000
  664DIO     C337132   5.570   6.485   0.882
  664DIO     C437133   5.635   6.503   0.750
  664DIO     C537134   5.780   6.512   0.739
  664DIO     F237135   5.835   6.532   0.618
  664DIO     C637136   5.863   6.506   0.856
  664DIO     F337137   5.997   6.514   0.844
  664DIO     C737138   5.423   6.474   0.894
  664DIO     C837139   5.346   6.379   0.811
  664DIO     C937140   5.202   6.369   0.823
  664DIO    C1037141   5.129   6.460   0.909
  664DIO    C1137142   5.202   6.550   0.997
  664DIO    C1237143   5.346   6.558   0.988
  664DIO     F437144   5.411   6.646   1.067
  664DIO     O137145   4.997   6.429   0.933
  664DIO    C1337146   4.902   6.530   0.951
  664DIO     O237147   4.901   6.653   0.922
  664DIO    C1437148   4.773   6.478   0.998
  664DIO    C1537149   4.707   6.363   0.933
  664DIO     F537150   4.770   6.296   0.833
  664DIO    C1637151   4.576   6.315   0.973
  664DIO    C1737152   4.500   6.384   1.077
  664DIO    C1837153   4.569   6.487   1.154
  664DIO    C1937154   4.701   6.534   1.114
  664DIO     F637155   4.763   6.619   1.199
  664DIO    C2037156   4.360   6.342   1.112
  664DIO     O337157   4.290   6.278   1.005
  664DIO    C2137158   4.246   6.369   0.905
  664DIO    C2237159   4.157   6.478   0.965
  664DIO    C2337160   4.238   6.544   1.077
  664DIO     O437161   4.282   6.447   1.171
  664DIO    C2437162   4.025   6.423   1.022
  664DIO    C2537163   3.934   6.351   0.921
  664DIO    C2637164   3.895   6.436   0.801
  664DIO     H137165   5.616   6.469   1.099
  664DIO     H237166   5.575   6.517   0.661
  664DIO     H337167   5.398   6.311   0.744
  664DIO     H437168   5.147   6.293   0.768
  664DIO     H537169   5.147   6.614   1.065
  664DIO     H637170   4.538   6.225   0.927
  664DIO     H737171   4.526   6.526   1.245
  664DIO     H837172   4.369   6.266   1.190
  664DIO     H937173   4.333   6.414   0.855
  664DIO    H1037174   4.193   6.312   0.828
  664DIO    H1137175   4.135   6.553   0.889
  664DIO    H1237176   4.177   6.617   1.130
  664DIO    H1337177   4.324   6.598   1.036
  664DIO    H1437178   4.044   6.354   1.105
  664DIO    H1537179   3.968   6.506   1.065
  664DIO    H1637180   3.981   6.258   0.887
  664DIO    H1737181   3.842   6.320   0.973
  664DIO    H1837182   3.852   6.531   0.832
  664DIO    H1937183   3.982   6.457   0.738
  664DIO    H2037184   3.822   6.383   0.740
  665DIO     F137185   9.504   5.785   3.229
  665DIO     C137186   9.426   5.852   3.142
  665DIO     C237187   9.282   5.837   3.148
  665DIO     C337188   9.193   5.907   3.053
  665DIO     C437189   9.259   5.995   2.954
  665DIO     C537190   9.403   6.009   2.950
  665DIO     F237191   9.458   6.094   2.861
  665DIO     C637192   9.487   5.939   3.044
  665DIO     F337193   9.621   5.952   3.038
  665DIO     C737194   9.047   5.892   3.057
  665DIO     C837195   8.970   5.859   2.935
  665DIO     C937196   8.825   5.844   2.939
  665DIO    C1037197   8.752   5.871   3.062
  665DIO    C1137198   8.825   5.896   3.185
  665DIO    C1237199   8.969   5.908   3.182
  665DIO     F437200   9.034   5.937   3.296
  665DIO     O137201   8.620   5.832   3.064
  665DIO    C1337202   8.526   5.905   3.136
  665DIO     O237203   8.525   6.023   3.181
  665DIO    C1437204   8.397   5.836   3.145
  665DIO    C1537205   8.330   5.778   3.027
  665DIO     F537206   8.393   5.778   2.907
  665DIO    C1637207   8.200   5.715   3.033
  665DIO    C1737208   8.124   5.714   3.158
  665DIO    C1837209   8.193   5.756   3.279
  665DIO    C1937210   8.324   5.817   3.273
  665DIO     F637211   8.387   5.840   3.391
  665DIO    C2037212   7.983   5.660   3.164
  665DIO     O337213   7.913   5.667   3.039
  665DIO    C2137214   7.870   5.798   3.007
  665DIO    C2237215   7.781   5.854   3.118
  665DIO    C2337216   7.862   5.847   3.247
  665DIO     O437217   7.906   5.713   3.272
  665DIO    C2437218   7.648   5.777   3.134
  665DIO    C2537219   7.557   5.774   3.010
  665DIO    C2637220   7.519   5.911   2.959
  665DIO     H137221   9.239   5.772   3.224
  665DIO     H237222   9.198   6.057   2.888
  665DIO     H337223   9.021   5.840   2.842
  665DIO     H437224   8.770   5.812   2.852
  665DIO     H537225   8.771   5.911   3.277
  665DIO     H637226   8.161   5.666   2.944
  665DIO     H737227   8.150   5.737   3.377
  665DIO     H837228   7.993   5.553   3.185
  665DIO     H937229   7.956   5.863   2.991
  665DIO    H1037230   7.817   5.794   2.912
  665DIO    H1137231   7.758   5.960   3.097
  665DIO    H1237232   7.800   5.877   3.333
  665DIO    H1337233   7.948   5.915   3.244
  665DIO    H1437234   7.668   5.673   3.164
  665DIO    H1537235   7.592   5.822   3.216
  665DIO    H1637236   7.605   5.716   2.930
  665DIO    H1737237   7.466   5.720   3.037
  665DIO    H1837238   7.475   5.973   3.038
  665DIO    H1937239   7.605   5.964   2.918
  665DIO    H2037240   7.445   5.902   2.878
  666DIO     F137241   6.455   8.574  10.329
  666DIO     C137242   6.378   8.684  10.330
  666DIO     C237243   6.234   8.669  10.321
  666DIO     C337244   6.145   8.788  10.319
  666DIO     C437245   6.210   8.920  10.329
  666DIO     C537246   6.355   8.932  10.338
  666DIO     F237247   6.410   9.054  10.351
  666DIO     C637248   6.438   8.815  10.339
  666DIO     F337249   6.572   8.827  10.346
  666DIO     C737250   5.999   8.775  10.310
  666DIO     C837251   5.921   8.852  10.210
  666DIO     C937252   5.777   8.841  10.200
  666DIO    C1037253   5.704   8.759  10.296
  666DIO    C1137254   5.777   8.676  10.391
  666DIO    C1237255   5.921   8.687  10.398
  666DIO     F437256   5.986   8.613  10.491
  666DIO     O137257   5.572   8.734  10.267
  666DIO    C1337258   5.477   8.721  10.368
  666DIO     O237259   5.477   8.757  10.489
  666DIO    C1437260   5.348   8.672  10.319
  666DIO    C1537261   5.282   8.730  10.201
  666DIO     F537262   5.345   8.826  10.128
  666DIO    C1637263   5.151   8.687  10.155
  666DIO    C1737264   5.075   8.588  10.230
  666DIO    C1837265   5.144   8.516  10.337
  666DIO    C1937266   5.276   8.559  10.382
  666DIO     F637267   5.338   8.479  10.471
  666DIO    C2037268   4.935   8.550  10.190
  666DIO     O337269   4.865   8.654  10.120
  666DIO    C2137270   4.821   8.758  10.205
  666DIO    C2237271   4.732   8.704  10.317
  666DIO    C2337272   4.813   8.597  10.389
  666DIO     O437273   4.857   8.497  10.298
  666DIO    C2437274   4.600   8.645  10.265
  666DIO    C2537275   4.509   8.741  10.188
  666DIO    C2637276   4.471   8.866  10.265
  666DIO     H137277   6.191   8.570  10.316
  666DIO     H237278   6.150   9.010  10.339
  666DIO     H337279   5.973   8.915  10.138
  666DIO     H437280   5.722   8.890  10.122
  666DIO     H537281   5.722   8.612  10.458
  666DIO     H637282   5.113   8.728  10.062
  666DIO     H737283   5.101   8.427  10.381
  666DIO     H837284   4.944   8.468  10.118
  666DIO     H937285   4.908   8.811  10.247
  666DIO    H1037286   4.769   8.832  10.144
  666DIO    H1137287   4.710   8.785  10.388
  666DIO    H1237288   4.752   8.547  10.466
  666DIO    H1337289   4.899   8.641  10.441
  666DIO    H1437290   4.620   8.558  10.201
  666DIO    H1537291   4.543   8.607  10.351
  666DIO    H1637292   4.556   8.770  10.093
  666DIO    H1737293   4.417   8.687  10.160
  666DIO    H1837294   4.427   8.840  10.362
  666DIO    H1937295   4.557   8.930  10.283
  666DIO    H2037296   4.397   8.924  10.209
  667DIO     F137297   3.992   9.057   6.327
  667DIO     C137298   3.915   8.951   6.355
  667DIO     C237299   3.770   8.967   6.360
  667DIO     C337300   3.682   8.853   6.393
  667DIO     C437301   3.747   8.723   6.419
  667DIO     C537302   3.891   8.709   6.414
  667DIO     F237303   3.947   8.588   6.433
  667DIO     C637304   3.975   8.822   6.382
  667DIO     F337305   4.109   8.809   6.378
  667DIO     C737306   3.535   8.868   6.399
  667DIO     C837307   3.458   8.820   6.516
  667DIO     C937308   3.313   8.834   6.522
  667DIO    C1037309   3.241   8.887   6.408
  667DIO    C1137310   3.313   8.942   6.295
  667DIO    C1237311   3.457   8.930   6.290
  667DIO     F437312   3.522   8.977   6.182
  667DIO     O137313   3.109   8.920   6.430
  667DIO    C1337314   3.014   8.905   6.328
  667DIO     O237315   3.013   8.838   6.221
  667DIO    C1437316   2.885   8.965   6.362
  667DIO    C1537317   2.819   8.940   6.492
  667DIO     F537318   2.881   8.868   6.587
  667DIO    C1637319   2.688   8.994   6.525
  667DIO    C1737320   2.612   9.070   6.426
  667DIO    C1837321   2.681   9.110   6.304
  667DIO    C1937322   2.813   9.058   6.272
  667DIO     F637323   2.875   9.111   6.165
  667DIO    C2037324   2.471   9.117   6.455
  667DIO     O337325   2.402   9.036   6.550
  667DIO    C2137326   2.358   8.912   6.495
  667DIO    C2237327   2.269   8.935   6.373
  667DIO    C2337328   2.350   9.019   6.275
  667DIO     O437329   2.394   9.140   6.336
  667DIO    C2437330   2.136   9.006   6.407
  667DIO    C2537331   2.046   8.934   6.508
  667DIO    C2637332   2.007   8.793   6.466
  667DIO     H137333   3.728   9.064   6.339
  667DIO     H237334   3.687   8.634   6.434
  667DIO     H337335   3.510   8.779   6.602
  667DIO     H437336   3.258   8.807   6.611
  667DIO     H537337   3.259   8.986   6.212
  667DIO     H637338   2.650   8.979   6.625
  667DIO     H737339   2.638   9.185   6.238
  667DIO     H837340   2.481   9.215   6.502
  667DIO     H937341   2.445   8.851   6.469
  667DIO    H1037342   2.305   8.858   6.574
  667DIO    H1137343   2.247   8.838   6.327
  667DIO    H1237344   2.289   9.046   6.188
  667DIO    H1337345   2.436   8.963   6.237
  667DIO    H1437346   2.156   9.106   6.446
  667DIO    H1537347   2.080   9.020   6.314
  667DIO    H1637348   2.093   8.931   6.607
  667DIO    H1737349   1.954   8.993   6.520
  667DIO    H1837350   1.963   8.792   6.366
  667DIO    H1937351   2.094   8.726   6.466
  667DIO    H2037352   1.934   8.752   6.536
  668DIO     F137353   7.688   0.579  10.758
  668DIO     C137354   7.611   0.637  10.664
  668DIO     C237355   7.466   0.622  10.672
  668DIO     C337356   7.378   0.682  10.570
  668DIO     C437357   7.443   0.759  10.462
  668DIO     C537358   7.587   0.772  10.456
  668DIO     F237359   7.643   0.847  10.359
  668DIO     C637360   7.671   0.712  10.557
  668DIO     F337361   7.805   0.725  10.550
  668DIO     C737362   7.231   0.667  10.575
  668DIO     C837363   7.154   0.621  10.458
  668DIO     C937364   7.009   0.607  10.463
  668DIO    C1037365   6.937   0.647  10.582
  668DIO    C1137366   7.009   0.685  10.702
  668DIO    C1237367   7.153   0.696  10.697
  668DIO     F437368   7.218   0.737  10.808
  668DIO     O137369   6.805   0.608  10.589
  668DIO    C1337370   6.710   0.689  10.652
  668DIO     O237371   6.709   0.810  10.684
  668DIO    C1437372   6.581   0.621  10.669
  668DIO    C1537373   6.515   0.550  10.557
  668DIO     F537374   6.577   0.538  10.438
  668DIO    C1637375   6.384   0.489  10.570
  668DIO    C1737376   6.308   0.501  10.694
  668DIO    C1837377   6.377   0.556  10.811
  668DIO    C1937378   6.509   0.616  10.798
  668DIO     F637379   6.571   0.651  10.912
  668DIO    C2037380   6.167   0.448  10.706
  668DIO     O337381   6.098   0.441  10.581
  668DIO    C2137382   6.054   0.569  10.536
  668DIO    C2237383   5.965   0.636  10.640
  668DIO    C2337384   6.046   0.642  10.769
  668DIO     O437385   6.090   0.512  10.808
  668DIO    C2437386   5.832   0.561  10.664
  668DIO    C2537387   5.742   0.545  10.541
  668DIO    C2637388   5.703   0.676  10.475
  668DIO     H137389   7.424   0.565  10.754
  668DIO     H237390   7.383   0.813  10.390
  668DIO     H337391   7.206   0.593  10.367
  668DIO     H437392   6.954   0.566  10.379
  668DIO     H537393   6.955   0.709  10.792
  668DIO     H637394   6.346   0.431  10.487
  668DIO     H737395   6.334   0.547  10.910
  668DIO     H837396   6.177   0.343  10.739
  668DIO     H937397   6.141   0.632  10.513
  668DIO    H1037398   6.001   0.555  10.441
  668DIO    H1137399   5.943   0.738  10.608
  668DIO    H1237400   5.985   0.682  10.851
  668DIO    H1337401   6.132   0.709  10.759
  668DIO    H1437402   5.852   0.461  10.705
  668DIO    H1537403   5.776   0.615  10.741
  668DIO    H1637404   5.789   0.479  10.468
  668DIO    H1737405   5.650   0.493  10.573
  668DIO    H1837406   5.659   0.745  10.548
  668DIO    H1937407   5.790   0.724  10.429
  668DIO    H2037408   5.630   0.658  10.396
  669DIO     F137409   3.361   3.936   4.383
  669DIO     C137410   3.283   4.029   4.323
  669DIO     C237411   3.139   4.012   4.324
  669DIO     C337412   3.050   4.110   4.257
  669DIO     C437413   3.116   4.226   4.193
  669DIO     C537414   3.260   4.241   4.194
  669DIO     F237415   3.316   4.350   4.138
  669DIO     C637416   3.344   4.143   4.259
  669DIO     F337417   3.478   4.157   4.258
  669DIO     C737418   2.904   4.094   4.256
  669DIO     C837419   2.827   4.104   4.130
  669DIO     C937420   2.682   4.089   4.129
  669DIO    C1037421   2.610   4.073   4.253
  669DIO    C1137422   2.682   4.056   4.378
  669DIO    C1237423   2.826   4.068   4.379
  669DIO     F437424   2.891   4.057   4.497
  669DIO     O137425   2.477   4.036   4.243
  669DIO    C1337426   2.383   4.081   4.335
  669DIO     O237427   2.382   4.177   4.416
  669DIO    C1437428   2.254   4.013   4.321
  669DIO    C1537429   2.188   3.997   4.189
  669DIO     F537430   2.250   4.037   4.077
  669DIO    C1637431   2.057   3.936   4.175
  669DIO    C1737432   1.981   3.893   4.292
  669DIO    C1837433   2.050   3.892   4.420
  669DIO    C1937434   2.181   3.952   4.435
  669DIO     F637435   2.244   3.934   4.553
  669DIO    C2037436   1.840   3.840   4.279
  669DIO     O337437   1.771   3.888   4.164
  669DIO    C2137438   1.727   4.023   4.178
  669DIO    C2237439   1.638   4.039   4.301
  669DIO    C2337440   1.719   3.988   4.420
  669DIO     O437441   1.763   3.854   4.399
  669DIO    C2437442   1.505   3.960   4.290
  669DIO    C2537443   1.415   3.999   4.173
  669DIO    C2637444   1.376   4.146   4.170
  669DIO     H137445   3.097   3.925   4.374
  669DIO     H237446   3.055   4.306   4.152
  669DIO     H337447   2.878   4.118   4.036
  669DIO     H437448   2.627   4.088   4.036
  669DIO     H537449   2.628   4.039   4.470
  669DIO     H637450   2.019   3.919   4.074
  669DIO     H737451   2.007   3.842   4.506
  669DIO     H837452   1.850   3.732   4.264
  669DIO     H937453   1.814   4.089   4.184
  669DIO    H1037454   1.674   4.051   4.086
  669DIO    H1137455   1.615   4.145   4.316
  669DIO    H1237456   1.658   3.988   4.511
  669DIO    H1337457   1.805   4.053   4.440
  669DIO    H1437458   1.525   3.853   4.284
  669DIO    H1537459   1.449   3.975   4.383
  669DIO    H1637460   1.462   3.971   4.078
  669DIO    H1737461   1.323   3.939   4.179
  669DIO    H1837462   1.332   4.177   4.265
  669DIO    H1937463   1.463   4.209   4.149
  669DIO    H2037464   1.302   4.163   4.091
  670DIO     F137465   2.554   1.988   2.690
  670DIO     C137466   2.477   2.019   2.795
  670DIO     C237467   2.333   2.023   2.779
  670DIO     C337468   2.244   2.059   2.892
  670DIO     C437469   2.309   2.087   3.022
  670DIO     C537470   2.454   2.082   3.036
  670DIO     F237471   2.509   2.105   3.156
  670DIO     C637472   2.537   2.048   2.923
  670DIO     F337473   2.671   2.045   2.937
  670DIO     C737474   2.097   2.065   2.877
  670DIO     C837475   2.020   2.183   2.922
  670DIO     C937476   1.876   2.188   2.908
  670DIO    C1037477   1.803   2.073   2.858
  670DIO    C1137478   1.875   1.959   2.806
  670DIO    C1237479   2.020   1.954   2.817
  670DIO     F437480   2.084   1.845   2.773
  670DIO     O137481   1.671   2.094   2.825
  670DIO    C1337482   1.576   1.993   2.842
  670DIO     O237483   1.575   1.888   2.911
  670DIO    C1437484   1.447   2.026   2.781
  670DIO    C1537485   1.381   2.156   2.803
  670DIO     F537486   1.443   2.253   2.874
  670DIO    C1637487   1.250   2.188   2.749
  670DIO    C1737488   1.174   2.088   2.675
  670DIO    C1837489   1.243   1.965   2.637
  670DIO    C1937490   1.375   1.934   2.690
  670DIO     F637491   1.437   1.825   2.639
  670DIO    C2037492   1.034   2.115   2.627
  670DIO     O337493   0.964   2.212   2.706
  670DIO    C2137494   0.920   2.160   2.831
  670DIO    C2237495   0.831   2.038   2.811
  670DIO    C2337496   0.912   1.937   2.729
  670DIO     O437497   0.956   1.996   2.607
  670DIO    C2437498   0.698   2.070   2.739
  670DIO    C2537499   0.608   2.172   2.809
  670DIO    C2637500   0.569   2.133   2.951
  670DIO     H137501   2.290   2.000   2.682
  670DIO     H237502   2.249   2.104   3.110
  670DIO     H337503   2.072   2.269   2.962
  670DIO     H437504   1.820   2.278   2.934
  670DIO     H537505   1.821   1.875   2.763
  670DIO     H637506   1.212   2.289   2.761
  670DIO     H737507   1.200   1.897   2.564
  670DIO     H837508   1.043   2.161   2.528
  670DIO     H937509   1.007   2.135   2.893
  670DIO    H1037510   0.867   2.240   2.884
  670DIO    H1137511   0.809   1.993   2.909
  670DIO    H1237512   0.851   1.850   2.703
  670DIO    H1337513   0.998   1.900   2.786
  670DIO    H1437514   0.718   2.107   2.638
  670DIO    H1537515   0.642   1.977   2.727
  670DIO    H1637516   0.655   2.271   2.810
  670DIO    H1737517   0.516   2.183   2.750
  670DIO    H1837518   0.525   2.033   2.954
  670DIO    H1937519   0.656   2.135   3.018
  670DIO    H2037520   0.496   2.203   2.991
  671DIO     F137521   1.834   6.441   4.438
  671DIO     C137522   1.756   6.397   4.539
  671DIO     C237523   1.612   6.411   4.529
  671DIO     C337524   1.523   6.365   4.638
  671DIO     C437525   1.589   6.303   4.756
  671DIO     C537526   1.733   6.291   4.763
  671DIO     F237527   1.788   6.230   4.870
  671DIO     C637528   1.817   6.337   4.655
  671DIO     F337529   1.951   6.325   4.664
  671DIO     C737530   1.377   6.379   4.630
  671DIO     C837531   1.300   6.440   4.741
  671DIO     C937532   1.155   6.454   4.734
  671DIO    C1037533   1.082   6.398   4.621
  671DIO    C1137534   1.155   6.344   4.508
  671DIO    C1237535   1.299   6.333   4.514
  671DIO     F437536   1.364   6.278   4.409
  671DIO     O137537   0.950   6.435   4.609
  671DIO    C1337538   0.856   6.347   4.558
  671DIO     O237539   0.855   6.222   4.542
  671DIO    C1437540   0.727   6.411   4.532
  671DIO    C1537541   0.660   6.497   4.633
  671DIO     F537542   0.723   6.525   4.749
  671DIO    C1637543   0.530   6.556   4.611
  671DIO    C1737544   0.454   6.527   4.490
  671DIO    C1837545   0.523   6.457   4.382
  671DIO    C1937546   0.654   6.399   4.403
  671DIO     F637547   0.717   6.349   4.295
  671DIO    C2037548   0.313   6.579   4.472
  671DIO     O337549   0.243   6.602   4.594
  671DIO    C2137550   0.200   6.482   4.657
  671DIO    C2237551   0.111   6.401   4.563
  671DIO    C2337552   0.192   6.377   4.435
  671DIO     O437553   0.236   6.501   4.380
  671DIO    C2437554  -0.022   6.472   4.529
  671DIO    C2537555  -0.113   6.505   4.648
  671DIO    C2637556  -0.151   6.384   4.731
  671DIO     H137557   1.569   6.455   4.440
  671DIO     H237558   1.528   6.259   4.834
  671DIO     H337559   1.351   6.480   4.827
  671DIO     H437560   1.100   6.506   4.811
  671DIO     H537561   1.101   6.308   4.421
  671DIO     H637562   0.491   6.625   4.686
  671DIO     H737563   0.480   6.452   4.283
  671DIO     H837564   0.323   6.677   4.425
  671DIO     H937565   0.286   6.422   4.688
  671DIO    H1037566   0.147   6.508   4.748
  671DIO    H1137567   0.088   6.304   4.608
  671DIO    H1237568   0.130   6.327   4.359
  671DIO    H1337569   0.278   6.312   4.455
  671DIO    H1437570  -0.002   6.565   4.475
  671DIO    H1537571  -0.078   6.408   4.459
  671DIO    H1637572  -0.065   6.580   4.712
  671DIO    H1737573  -0.204   6.551   4.609
  671DIO    H1837574  -0.195   6.305   4.669
  671DIO    H1937575  -0.065   6.342   4.783
  671DIO    H2037576  -0.225   6.412   4.807
  672DIO     F137577   2.376   1.720   6.332
  672DIO     C137578   2.299   1.677   6.434
  672DIO     C237579   2.155   1.690   6.424
  672DIO     C337580   2.066   1.646   6.534
  672DIO     C437581   2.131   1.586   6.652
  672DIO     C537582   2.276   1.574   6.660
  672DIO     F237583   2.331   1.515   6.767
  672DIO     C637584   2.359   1.618   6.551
  672DIO     F337585   2.493   1.607   6.560
  672DIO     C737586   1.920   1.660   6.526
  672DIO     C837587   1.842   1.723   6.635
  672DIO     C937588   1.698   1.736   6.628
  672DIO    C1037589   1.625   1.679   6.516
  672DIO    C1137590   1.698   1.624   6.403
  672DIO    C1237591   1.842   1.613   6.410
  672DIO     F437592   1.907   1.556   6.306
  672DIO     O137593   1.493   1.716   6.504
  672DIO    C1337594   1.398   1.627   6.453
  672DIO     O237595   1.398   1.502   6.440
  672DIO    C1437596   1.269   1.691   6.426
  672DIO    C1537597   1.203   1.778   6.526
  672DIO     F537598   1.266   1.808   6.642
  672DIO    C1637599   1.072   1.837   6.504
  672DIO    C1737600   0.996   1.806   6.383
  672DIO    C1837601   1.065   1.735   6.276
  672DIO    C1937602   1.197   1.677   6.298
  672DIO     F637603   1.259   1.625   6.190
  672DIO    C2037604   0.856   1.858   6.364
  672DIO     O337605   0.786   1.883   6.487
  672DIO    C2137606   0.742   1.763   6.550
  672DIO    C2237607   0.653   1.681   6.458
  672DIO    C2337608   0.734   1.656   6.330
  672DIO     O437609   0.778   1.778   6.273
  672DIO    C2437610   0.521   1.752   6.423
  672DIO    C2537611   0.430   1.786   6.541
  672DIO    C2637612   0.392   1.666   6.626
  672DIO     H137613   2.112   1.734   6.334
  672DIO     H237614   2.071   1.543   6.731
  672DIO     H337615   1.894   1.765   6.721
  672DIO     H437616   1.643   1.790   6.704
  672DIO     H537617   1.643   1.586   6.318
  672DIO     H637618   1.034   1.907   6.578
  672DIO     H737619   1.022   1.728   6.177
  672DIO     H837620   0.865   1.956   6.316
  672DIO     H937621   0.829   1.704   6.582
  672DIO    H1037622   0.690   1.791   6.642
  672DIO    H1137623   0.631   1.585   6.505
  672DIO    H1237624   0.673   1.604   6.255
  672DIO    H1337625   0.820   1.591   6.351
  672DIO    H1437626   0.541   1.844   6.367
  672DIO    H1537627   0.464   1.687   6.354
  672DIO    H1637628   0.477   1.862   6.604
  672DIO    H1737629   0.338   1.832   6.502
  672DIO    H1837630   0.348   1.587   6.565
  672DIO    H1937631   0.478   1.625   6.679
  672DIO    H2037632   0.318   1.696   6.702
  673DIO     F137633   7.374   7.252   0.430
  673DIO     C137634   7.296   7.214   0.533
  673DIO     C237635   7.152   7.227   0.523
  673DIO     C337636   7.063   7.188   0.634
  673DIO     C437637   7.129   7.134   0.756
  673DIO     C537638   7.273   7.122   0.764
  673DIO     F237639   7.328   7.068   0.874
  673DIO     C637640   7.357   7.161   0.653
  673DIO     F337641   7.490   7.150   0.662
  673DIO     C737642   6.917   7.202   0.626
  673DIO     C837643   6.840   7.270   0.733
  673DIO     C937644   6.695   7.283   0.725
  673DIO    C1037645   6.622   7.220   0.616
  673DIO    C1137646   6.695   7.159   0.505
  673DIO    C1237647   6.839   7.149   0.512
  673DIO     F437648   6.904   7.087   0.411
  673DIO     O137649   6.490   7.256   0.602
  673DIO    C1337650   6.396   7.165   0.555
  673DIO     O237651   6.395   7.039   0.548
  673DIO    C1437652   6.266   7.228   0.525
  673DIO    C1537653   6.200   7.320   0.621
  673DIO     F537654   6.263   7.355   0.735
  673DIO    C1637655   6.069   7.377   0.596
  673DIO    C1737656   5.994   7.341   0.477
  673DIO    C1837657   6.062   7.264   0.373
  673DIO    C1937658   6.194   7.208   0.398
  673DIO     F637659   6.256   7.151   0.293
  673DIO    C2037660   5.853   7.391   0.455
  673DIO     O337661   5.783   7.422   0.576
  673DIO    C2137662   5.739   7.306   0.646
  673DIO    C2237663   5.651   7.219   0.557
  673DIO    C2337664   5.731   7.188   0.431
  673DIO     O437665   5.776   7.307   0.368
  673DIO    C2437666   5.518   7.288   0.518
  673DIO    C2537667   5.427   7.328   0.635
  673DIO    C2637668   5.389   7.213   0.726
  673DIO     H137669   7.109   7.266   0.431
  673DIO     H237670   7.068   7.095   0.837
  673DIO     H337671   6.891   7.315   0.816
  673DIO     H437672   6.640   7.339   0.798
  673DIO     H537673   6.640   7.117   0.422
  673DIO     H637674   6.031   7.451   0.666
  673DIO     H737675   6.019   7.253   0.275
  673DIO     H837676   5.863   7.487   0.402
  673DIO     H937677   5.826   7.249   0.681
  673DIO    H1037678   5.687   7.338   0.736
  673DIO    H1137679   5.628   7.125   0.609
  673DIO    H1237680   5.670   7.133   0.359
  673DIO    H1337681   5.817   7.124   0.455
  673DIO    H1437682   5.538   7.378   0.459
  673DIO    H1537683   5.461   7.220   0.453
  673DIO    H1637684   5.474   7.407   0.695
  673DIO    H1737685   5.335   7.372   0.594
  673DIO    H1837686   5.345   7.130   0.669
  673DIO    H1937687   5.475   7.174   0.781
  673DIO    H2037688   5.315   7.246   0.800
  674DIO     F137689   8.484   1.879   7.930
  674DIO     C137690   8.406   1.943   8.019
  674DIO     C237691   8.262   1.942   8.002
  674DIO     C337692   8.174   2.012   8.097
  674DIO     C437693   8.239   2.082   8.211
  674DIO     C537694   8.383   2.082   8.225
  674DIO     F237695   8.439   2.142   8.332
  674DIO     C637696   8.467   2.012   8.131
  674DIO     F337697   8.601   2.014   8.145
  674DIO     C737698   8.027   2.013   8.081
  674DIO     C837699   7.950   2.139   8.086
  674DIO     C937700   7.805   2.140   8.071
  674DIO    C1037701   7.733   2.015   8.061
  674DIO    C1137702   7.805   1.889   8.049
  674DIO    C1237703   7.949   1.889   8.061
  674DIO     F437704   8.014   1.771   8.055
  674DIO     O137705   7.601   2.023   8.023
  674DIO    C1337706   7.506   1.934   8.072
  674DIO     O237707   7.505   1.857   8.171
  674DIO    C1437708   7.377   1.945   8.003
  674DIO    C1537709   7.311   2.075   7.981
  674DIO     F537710   7.373   2.189   8.016
  674DIO    C1637711   7.180   2.087   7.920
  674DIO    C1737712   7.104   1.968   7.883
  674DIO    C1837713   7.173   1.840   7.887
  674DIO    C1937714   7.304   1.828   7.948
  674DIO     F637715   7.367   1.709   7.935
  674DIO    C2037716   6.963   1.978   7.829
  674DIO     O337717   6.894   2.096   7.872
  674DIO    C2137718   6.850   2.088   8.007
  674DIO    C2237719   6.761   1.966   8.028
  674DIO    C2337720   6.842   1.844   7.983
  674DIO     O437721   6.886   1.860   7.849
  674DIO    C2437722   6.628   1.973   7.950
  674DIO    C2537723   6.538   2.092   7.982
  674DIO    C2637724   6.499   2.102   8.129
  674DIO     H137725   8.220   1.888   7.919
  674DIO     H237726   8.178   2.127   8.289
  674DIO     H337727   8.002   2.234   8.095
  674DIO     H437728   7.750   2.233   8.065
  674DIO     H537729   7.751   1.797   8.036
  674DIO     H637730   7.142   2.186   7.899
  674DIO     H737731   7.130   1.752   7.841
  674DIO     H837732   6.973   1.989   7.720
  674DIO     H937733   6.937   2.084   8.074
  674DIO    H1037734   6.797   2.180   8.031
  674DIO    H1137735   6.739   1.955   8.135
  674DIO    H1237736   6.781   1.753   7.988
  674DIO    H1337737   6.928   1.828   8.049
  674DIO    H1437738   6.648   1.974   7.842
  674DIO    H1537739   6.572   1.881   7.969
  674DIO    H1637740   6.585   2.186   7.951
  674DIO    H1737741   6.446   2.083   7.923
  674DIO    H1837742   6.455   2.008   8.165
  674DIO    H1937743   6.586   2.125   8.192
  674DIO    H2037744   6.426   2.181   8.143
  675DIO     F137745   3.841   2.578   2.687
  675DIO     C137746   3.763   2.544   2.582
  675DIO     C237747   3.619   2.540   2.598
  675DIO     C337748   3.530   2.501   2.487
  675DIO     C437749   3.596   2.469   2.358
  675DIO     C537750   3.740   2.473   2.344
  675DIO     F237751   3.796   2.447   2.224
  675DIO     C637752   3.824   2.511   2.455
  675DIO     F337753   3.958   2.514   2.441
  675DIO     C737754   3.384   2.496   2.502
  675DIO     C837755   3.307   2.377   2.460
  675DIO     C937756   3.162   2.371   2.474
  675DIO    C1037757   3.090   2.488   2.521
  675DIO    C1137758   3.162   2.604   2.570
  675DIO    C1237759   3.306   2.608   2.558
  675DIO     F437760   3.371   2.719   2.599
  675DIO     O137761   2.957   2.468   2.555
  675DIO    C1337762   2.863   2.568   2.534
  675DIO     O237763   2.862   2.672   2.463
  675DIO    C1437764   2.734   2.538   2.597
  675DIO    C1537765   2.667   2.407   2.579
  675DIO     F537766   2.730   2.308   2.511
  675DIO    C1637767   2.537   2.377   2.634
  675DIO    C1737768   2.461   2.480   2.705
  675DIO    C1837769   2.530   2.604   2.739
  675DIO    C1937770   2.661   2.633   2.685
  675DIO     F637771   2.724   2.743   2.732
  675DIO    C2037772   2.320   2.454   2.753
  675DIO     O337773   2.250   2.354   2.677
  675DIO    C2137774   2.207   2.402   2.551
  675DIO    C2237775   2.118   2.525   2.567
  675DIO    C2337776   2.199   2.628   2.646
  675DIO     O437777   2.243   2.573   2.770
  675DIO    C2437778   1.985   2.495   2.640
  675DIO    C2537779   1.894   2.391   2.573
  675DIO    C2637780   1.856   2.425   2.430
  675DIO     H137781   3.577   2.567   2.695
  675DIO     H237782   3.535   2.449   2.270
  675DIO     H337783   3.358   2.289   2.423
  675DIO     H437784   3.107   2.281   2.452
  675DIO     H537785   3.108   2.689   2.610
  675DIO     H637786   2.499   2.276   2.625
  675DIO     H737787   2.487   2.674   2.809
  675DIO     H837788   2.330   2.411   2.854
  675DIO     H937789   2.293   2.425   2.488
  675DIO    H1037790   2.154   2.321   2.500
  675DIO    H1137791   2.095   2.567   2.468
  675DIO    H1237792   2.138   2.716   2.669
  675DIO    H1337793   2.285   2.663   2.588
  675DIO    H1437794   2.005   2.461   2.742
  675DIO    H1537795   1.929   2.589   2.649
  675DIO    H1637796   1.942   2.292   2.575
  675DIO    H1737797   1.803   2.382   2.633
  675DIO    H1837798   1.812   2.526   2.424
  675DIO    H1937799   1.943   2.421   2.363
  675DIO    H2037800   1.782   2.354   2.393
  676DIO     F137801   9.712   1.747  -0.821
  676DIO     C137802   9.635   1.690  -0.727
  676DIO     C237803   9.490   1.705  -0.735
  676DIO     C337804   9.402   1.645  -0.633
  676DIO     C437805   9.467   1.567  -0.525
  676DIO     C537806   9.611   1.554  -0.519
  676DIO     F237807   9.667   1.479  -0.421
  676DIO     C637808   9.695   1.614  -0.620
  676DIO     F337809   9.829   1.602  -0.613
  676DIO     C737810   9.255   1.660  -0.638
  676DIO     C837811   9.178   1.705  -0.520
  676DIO     C937812   9.033   1.719  -0.526
  676DIO    C1037813   8.961   1.679  -0.645
  676DIO    C1137814   9.033   1.642  -0.765
  676DIO    C1237815   9.177   1.630  -0.760
  676DIO     F437816   9.242   1.589  -0.871
  676DIO     O137817   8.829   1.718  -0.652
  676DIO    C1337818   8.734   1.638  -0.715
  676DIO     O237819   8.733   1.516  -0.747
  676DIO    C1437820   8.605   1.705  -0.732
  676DIO    C1537821   8.539   1.776  -0.620
  676DIO     F537822   8.601   1.788  -0.501
  676DIO    C1637823   8.408   1.838  -0.633
  676DIO    C1737824   8.332   1.825  -0.757
  676DIO    C1837825   8.401   1.771  -0.874
  676DIO    C1937826   8.533   1.711  -0.861
  676DIO     F637827   8.595   1.675  -0.975
  676DIO    C2037828   8.191   1.879  -0.769
  676DIO     O337829   8.122   1.885  -0.644
  676DIO    C2137830   8.078   1.758  -0.599
  676DIO    C2237831   7.989   1.690  -0.703
  676DIO    C2337832   8.070   1.684  -0.832
  676DIO     O437833   8.114   1.814  -0.870
  676DIO    C2437834   7.856   1.765  -0.727
  676DIO    C2537835   7.766   1.782  -0.604
  676DIO    C2637836   7.727   1.650  -0.538
  676DIO     H137837   9.448   1.761  -0.817
  676DIO     H237838   9.407   1.513  -0.453
  676DIO     H337839   9.230   1.733  -0.430
  676DIO     H437840   8.978   1.761  -0.442
  676DIO     H537841   8.979   1.617  -0.855
  676DIO     H637842   8.370   1.896  -0.550
  676DIO     H737843   8.358   1.779  -0.973
  676DIO     H837844   8.201   1.983  -0.802
  676DIO     H937845   8.165   1.695  -0.576
  676DIO    H1037846   8.025   1.772  -0.504
  676DIO    H1137847   7.967   1.588  -0.671
  676DIO    H1237848   8.009   1.645  -0.914
  676DIO    H1337849   8.156   1.617  -0.822
  676DIO    H1437850   7.876   1.865  -0.768
  676DIO    H1537851   7.800   1.712  -0.804
  676DIO    H1637852   7.813   1.848  -0.530
  676DIO    H1737853   7.674   1.833  -0.636
  676DIO    H1837854   7.683   1.581  -0.610
  676DIO    H1937855   7.814   1.602  -0.492
  676DIO    H2037856   7.654   1.668  -0.459
  677DIO     F137857   9.548   5.010   2.132
  677DIO     C137858   9.470   4.900   2.128
  677DIO     C237859   9.326   4.914   2.138
  677DIO     C337860   9.238   4.796   2.136
  677DIO     C437861   9.303   4.664   2.122
  677DIO     C537862   9.447   4.652   2.113
  677DIO     F237863   9.503   4.530   2.097
  677DIO     C637864   9.531   4.770   2.116
  677DIO     F337865   9.665   4.757   2.108
  677DIO     C737866   9.091   4.808   2.146
  677DIO     C837867   9.014   4.728   2.244
  677DIO     C937868   8.869   4.740   2.254
  677DIO    C1037869   8.797   4.824   2.160
  677DIO    C1137870   8.869   4.909   2.068
  677DIO    C1237871   9.013   4.900   2.060
  677DIO     F437872   9.078   4.976   1.970
  677DIO     O137873   8.665   4.849   2.190
  677DIO    C1337874   8.570   4.864   2.089
  677DIO     O237875   8.569   4.832   1.967
  677DIO    C1437876   8.441   4.912   2.139
  677DIO    C1537877   8.375   4.850   2.256
  677DIO     F537878   8.437   4.753   2.326
  677DIO    C1637879   8.244   4.892   2.303
  677DIO    C1737880   8.168   4.993   2.231
  677DIO    C1837881   8.237   5.068   2.126
  677DIO    C1937882   8.368   5.027   2.080
  677DIO     F637883   8.431   5.109   1.993
  677DIO    C2037884   8.027   5.030   2.272
  677DIO     O337885   7.958   4.924   2.340
  677DIO    C2137886   7.914   4.822   2.251
  677DIO    C2237887   7.825   4.879   2.141
  677DIO    C2337888   7.906   4.989   2.072
  677DIO     O437889   7.950   5.086   2.166
  677DIO    C2437890   7.692   4.937   2.194
  677DIO    C2537891   7.602   4.839   2.269
  677DIO    C2637892   7.563   4.717   2.188
  677DIO     H137893   9.284   5.014   2.146
  677DIO     H237894   9.242   4.574   2.111
  677DIO     H337895   9.066   4.663   2.313
  677DIO     H437896   8.814   4.688   2.331
  677DIO     H537897   8.815   4.976   2.002
  677DIO     H637898   8.206   4.848   2.395
  677DIO     H737899   8.194   5.158   2.085
  677DIO     H837900   8.037   5.110   2.347
  677DIO     H937901   8.001   4.771   2.208
  677DIO    H1037902   7.861   4.747   2.310
  677DIO    H1137903   7.803   4.801   2.068
  677DIO    H1237904   7.845   5.040   1.997
  677DIO    H1337905   7.992   4.947   2.019
  677DIO    H1437906   7.712   5.022   2.261
  677DIO    H1537907   7.636   4.978   2.110
  677DIO    H1637908   7.649   4.807   2.363
  677DIO    H1737909   7.510   4.892   2.298
  677DIO    H1837910   7.519   4.745   2.092
  677DIO    H1937911   7.650   4.652   2.169
  677DIO    H2037912   7.490   4.657   2.242
  678DIO     F137913   3.601  10.298   7.642
  678DIO     C137914   3.524  10.393   7.698
  678DIO     C237915   3.380  10.384   7.683
  678DIO     C337916   3.291  10.488   7.741
  678DIO     C437917   3.356  10.597   7.816
  678DIO     C537918   3.501  10.603   7.830
  678DIO     F237919   3.556  10.702   7.902
  678DIO     C637920   3.584  10.501   7.771
  678DIO     F337921   3.718  10.508   7.783
  678DIO     C737922   3.144  10.482   7.726
  678DIO     C837923   3.067  10.599   7.679
  678DIO     C937924   2.923  10.593   7.664
  678DIO    C1037925   2.850  10.475   7.707
  678DIO    C1137926   2.923  10.355   7.747
  678DIO    C1237927   3.067  10.360   7.758
  678DIO     F437928   3.132  10.250   7.801
  678DIO     O137929   2.718  10.467   7.668
  678DIO    C1337930   2.623  10.406   7.750
  678DIO     O237931   2.622  10.375   7.872
  678DIO    C1437932   2.494  10.387   7.682
  678DIO    C1537933   2.428  10.498   7.609
  678DIO     F537934   2.491  10.616   7.595
  678DIO    C1637935   2.297  10.484   7.548
  678DIO    C1737936   2.221  10.360   7.563
  678DIO    C1837937   2.290  10.244   7.619
  678DIO    C1937938   2.422  10.258   7.679
  678DIO     F637939   2.484  10.144   7.716
  678DIO    C2037940   2.081  10.347   7.509
  678DIO     O337941   2.011  10.472   7.501
  678DIO    C2137942   1.967  10.520   7.628
  678DIO    C2237943   1.878  10.417   7.697
  678DIO    C2337944   1.959  10.287   7.705
  678DIO     O437945   2.003  10.247   7.576
  678DIO    C2437946   1.746  10.391   7.622
  678DIO    C2537947   1.655  10.513   7.603
  678DIO    C2637948   1.616  10.582   7.734
  678DIO     H137949   3.337  10.301   7.628
  678DIO     H237950   3.296  10.670   7.869
  678DIO     H337951   3.119  10.689   7.649
  678DIO     H437952   2.868  10.676   7.622
  678DIO     H537953   2.868  10.266   7.773
  678DIO     H637954   2.259  10.566   7.489
  678DIO     H737955   2.247  10.145   7.613
  678DIO     H837956   2.090  10.313   7.406
  678DIO     H937957   2.054  10.544   7.690
  678DIO    H1037958   1.914  10.614   7.612
  678DIO    H1137959   1.856  10.451   7.798
  678DIO    H1237960   1.898  10.206   7.746
  678DIO    H1337961   2.045  10.299   7.772
  678DIO    H1437962   1.765  10.349   7.523
  678DIO    H1537963   1.689  10.315   7.677
  678DIO    H1637964   1.702  10.586   7.536
  678DIO    H1737965   1.563  10.481   7.553
  678DIO    H1837966   1.573  10.511   7.804
  678DIO    H1937967   1.703  10.629   7.781
  678DIO    H2037968   1.543  10.661   7.714
  679DIO     F137969   8.005   5.917  -0.926
  679DIO     C137970   7.927   5.856  -0.834
  679DIO     C237971   7.783   5.871  -0.842
  679DIO     C337972   7.694   5.808  -0.742
  679DIO     C437973   7.760   5.726  -0.637
  679DIO     C537974   7.904   5.712  -0.632
  679DIO     F237975   7.959   5.634  -0.537
  679DIO     C637976   7.988   5.777  -0.730
  679DIO     F337977   8.121   5.764  -0.724
  679DIO     C737978   7.548   5.823  -0.747
  679DIO     C837979   7.471   5.864  -0.628
  679DIO     C937980   7.326   5.878  -0.632
  679DIO    C1037981   7.253   5.843  -0.753
  679DIO    C1137982   7.326   5.809  -0.874
  679DIO    C1237983   7.470   5.798  -0.870
  679DIO     F437984   7.535   5.761  -0.983
  679DIO     O137985   7.121   5.881  -0.758
  679DIO    C1337986   7.027   5.804  -0.824
  679DIO     O237987   7.026   5.683  -0.861
  679DIO    C1437988   6.898   5.872  -0.839
  679DIO    C1537989   6.831   5.938  -0.724
  679DIO     F537990   6.894   5.946  -0.605
  679DIO    C1637991   6.700   6.000  -0.735
  679DIO    C1737992   6.625   5.993  -0.860
  679DIO    C1837993   6.693   5.943  -0.978
  679DIO    C1937994   6.825   5.882  -0.967
  679DIO     F637995   6.888   5.851  -1.083
  679DIO    C2037996   6.484   6.047  -0.869
  679DIO     O337997   6.414   6.048  -0.744
  679DIO    C2137998   6.371   5.919  -0.704
  679DIO    C2237999   6.282   5.856  -0.810
  679DIO    C2338000   6.362   5.855  -0.940
  679DIO     O438001   6.407   5.986  -0.973
  679DIO    C2438002   6.149   5.932  -0.831
  679DIO    C2538003   6.058   5.943  -0.708
  679DIO    C2638004   6.020   5.810  -0.647
  679DIO     H138005   7.740   5.931  -0.922
  679DIO     H238006   7.699   5.669  -0.567
  679DIO     H338007   7.522   5.888  -0.536
  679DIO     H438008   7.271   5.916  -0.547
  679DIO     H538009   7.271   5.788  -0.965
  679DIO     H638010   6.662   6.055  -0.650
  679DIO     H738011   6.651   5.955  -1.077
  679DIO     H838012   6.494   6.152  -0.898
  679DIO     H938013   6.457   5.855  -0.683
  679DIO    H1038014   6.318   5.930  -0.608
  679DIO    H1138015   6.259   5.752  -0.782
  679DIO    H1238016   6.301   5.818  -1.023
  679DIO    H1338017   6.449   5.787  -0.932
  679DIO    H1438018   6.169   6.033  -0.868
  679DIO    H1538019   6.092   5.881  -0.911
  679DIO    H1638020   6.106   6.006  -0.632
  679DIO    H1738021   5.966   5.996  -0.738
  679DIO    H1838022   5.976   5.743  -0.722
  679DIO    H1938023   6.106   5.760  -0.603
  679DIO    H2038024   5.946   5.825  -0.568
  680DIO     F138025  10.444   9.150   8.616
  680DIO     C138026  10.366   9.122   8.509
  680DIO     C238027  10.222   9.117   8.526
  680DIO     C338028  10.133   9.084   8.412
  680DIO     C438029  10.199   9.059   8.281
  680DIO     C538030  10.343   9.064   8.268
  680DIO     F238031  10.399   9.044   8.147
  680DIO     C638032  10.427   9.096   8.381
  680DIO     F338033  10.561   9.099   8.367
  680DIO     C738034   9.987   9.078   8.427
  680DIO     C838035   9.910   8.961   8.379
  680DIO     C938036   9.765   8.955   8.393
  680DIO    C1038037   9.693   9.069   8.445
  680DIO    C1138038   9.765   9.183   8.500
  680DIO    C1238039   9.909   9.187   8.489
  680DIO     F438040   9.974   9.296   8.535
  680DIO     O138041   9.560   9.048   8.478
  680DIO    C1338042   9.466   9.149   8.463
  680DIO     O238043   9.465   9.256   8.397
  680DIO    C1438044   9.337   9.115   8.524
  680DIO    C1538045   9.271   8.985   8.499
  680DIO     F538046   9.333   8.890   8.426
  680DIO    C1638047   9.140   8.952   8.553
  680DIO    C1738048   9.064   9.051   8.629
  680DIO    C1838049   9.133   9.173   8.669
  680DIO    C1938050   9.264   9.205   8.616
  680DIO     F638051   9.327   9.312   8.669
  680DIO    C2038052   8.923   9.023   8.676
  680DIO     O338053   8.854   8.927   8.594
  680DIO    C2138054   8.810   8.982   8.471
  680DIO    C2238055   8.721   9.104   8.493
  680DIO    C2338056   8.802   9.202   8.578
  680DIO     O438057   8.846   9.141   8.698
  680DIO    C2438058   8.588   9.070   8.564
  680DIO    C2538059   8.498   8.970   8.492
  680DIO    C2638060   8.459   9.012   8.351
  680DIO     H138061  10.180   9.139   8.623
  680DIO     H238062  10.138   9.044   8.193
  680DIO     H338063   9.961   8.876   8.337
  680DIO     H438064   9.710   8.866   8.366
  680DIO     H538065   9.711   9.265   8.544
  680DIO     H638066   9.102   8.852   8.538
  680DIO     H738067   9.090   9.239   8.743
  680DIO     H838068   8.933   8.975   8.774
  680DIO     H938069   8.897   9.009   8.409
  680DIO    H1038070   8.757   8.903   8.416
  680DIO    H1138071   8.698   9.151   8.397
  680DIO    H1238072   8.741   9.289   8.605
  680DIO    H1338073   8.888   9.241   8.521
  680DIO    H1438074   8.608   9.031   8.665
  680DIO    H1538075   8.532   9.163   8.578
  680DIO    H1638076   8.545   8.871   8.489
  680DIO    H1738077   8.406   8.958   8.551
  680DIO    H1838078   8.415   9.112   8.350
  680DIO    H1938079   8.546   9.011   8.284
  680DIO    H2038080   8.385   8.942   8.310
  681DIO     F138081   6.144  10.765   8.136
  681DIO     C138082   6.066  10.710   8.040
  681DIO     C238083   5.922  10.710   8.057
  681DIO     C338084   5.833  10.649   7.956
  681DIO     C438085   5.899  10.591   7.836
  681DIO     C538086   6.043  10.593   7.821
  681DIO     F238087   6.098  10.543   7.709
  681DIO     C638088   6.127  10.652   7.923
  681DIO     F338089   6.261  10.652   7.908
  681DIO     C738090   5.687  10.647   7.971
  681DIO     C838091   5.610  10.522   7.955
  681DIO     C938092   5.465  10.520   7.970
  681DIO    C1038093   5.392  10.643   7.992
  681DIO    C1138094   5.465  10.767   8.016
  681DIO    C1238095   5.609  10.768   8.003
  681DIO     F438096   5.674  10.885   8.021
  681DIO     O138097   5.260  10.631   8.029
  681DIO    C1338098   5.166  10.725   7.989
  681DIO     O238099   5.165  10.811   7.897
  681DIO    C1438100   5.037  10.707   8.056
  681DIO    C1538101   4.970  10.575   8.065
  681DIO     F538102   5.033  10.465   8.019
  681DIO    C1638103   4.840  10.557   8.125
  681DIO    C1738104   4.764  10.672   8.174
  681DIO    C1838105   4.833  10.801   8.181
  681DIO    C1938106   4.964  10.818   8.122
  681DIO     F638107   5.027  10.935   8.146
  681DIO    C2038108   4.623  10.657   8.226
  681DIO     O338109   4.553  10.544   8.172
  681DIO    C2138110   4.510  10.565   8.038
  681DIO    C2238111   4.421  10.689   8.029
  681DIO    C2338112   4.502  10.806   8.086
  681DIO     O438113   4.546  10.777   8.218
  681DIO    C2438114   4.288  10.674   8.107
  681DIO    C2538115   4.197  10.559   8.062
  681DIO    C2638116   4.159  10.563   7.915
  681DIO     H138117   5.879  10.756   8.146
  681DIO     H238118   5.838  10.554   7.754
  681DIO     H338119   5.661  10.428   7.936
  681DIO     H438120   5.410  10.427   7.966
  681DIO     H538121   5.411  10.858   8.038
  681DIO     H638122   4.801  10.457   8.136
  681DIO     H738123   4.790  10.884   8.236
  681DIO     H838124   4.633  10.636   8.333
  681DIO     H938125   4.596  10.575   7.972
  681DIO    H1038126   4.457  10.475   8.006
  681DIO    H1138127   4.398  10.710   7.924
  681DIO    H1238128   4.440  10.896   8.090
  681DIO    H1338129   4.588  10.828   8.022
  681DIO    H1438130   4.308  10.662   8.214
  681DIO    H1538131   4.232  10.768   8.096
  681DIO    H1638132   4.245  10.462   8.085
  681DIO    H1738133   4.106  10.562   8.123
  681DIO    H1838134   4.115  10.660   7.889
  681DIO    H1938135   4.245  10.546   7.851
  681DIO    H2038136   4.085  10.485   7.893
  682DIO     F138137   3.985   9.493  -0.374
  682DIO     C138138   3.908   9.595  -0.415
  682DIO     C238139   3.764   9.578  -0.417
  682DIO     C338140   3.675   9.687  -0.464
  682DIO     C438141   3.740   9.814  -0.505
  682DIO     C538142   3.885   9.828  -0.501
  682DIO     F238143   3.940   9.946  -0.535
  682DIO     C638144   3.968   9.720  -0.456
  682DIO     F338145   4.102   9.734  -0.454
  682DIO     C738146   3.529   9.672  -0.468
  682DIO     C838147   3.451   9.706  -0.590
  682DIO     C938148   3.307   9.691  -0.594
  682DIO    C1038149   3.234   9.652  -0.475
  682DIO    C1138150   3.307   9.611  -0.356
  682DIO    C1238151   3.451   9.623  -0.352
  682DIO     F438152   3.516   9.590  -0.239
  682DIO     O138153   3.102   9.617  -0.492
  682DIO    C1338154   3.007   9.644  -0.393
  682DIO     O238155   3.007   9.723  -0.295
  682DIO    C1438156   2.878   9.580  -0.420
  682DIO    C1538157   2.812   9.589  -0.552
  682DIO     F538158   2.875   9.650  -0.655
  682DIO    C1638159   2.681   9.532  -0.578
  682DIO    C1738160   2.605   9.468  -0.471
  682DIO    C1838161   2.674   9.443  -0.345
  682DIO    C1938162   2.806   9.499  -0.320
  682DIO     F638163   2.868   9.459  -0.207
  682DIO    C2038164   2.465   9.418  -0.494
  682DIO     O338165   2.395   9.488  -0.598
  682DIO    C2138166   2.351   9.617  -0.558
  682DIO    C2238167   2.262   9.609  -0.435
  682DIO    C2338168   2.343   9.537  -0.327
  682DIO     O438169   2.387   9.410  -0.374
  682DIO    C2438170   2.130   9.534  -0.460
  682DIO    C2538171   2.039   9.594  -0.568
  682DIO    C2638172   2.001   9.739  -0.543
  682DIO     H138173   3.721   9.484  -0.385
  682DIO     H238174   3.680   9.900  -0.530
  682DIO     H338175   3.503   9.737  -0.680
  682DIO     H438176   3.252   9.708  -0.686
  682DIO     H538177   3.252   9.577  -0.269
  682DIO     H638178   2.643   9.535  -0.679
  682DIO     H738179   2.631   9.377  -0.270
  682DIO     H838180   2.474   9.315  -0.529
  682DIO     H938181   2.438   9.681  -0.539
  682DIO    H1038182   2.299   9.662  -0.643
  682DIO    H1138183   2.240   9.710  -0.399
  682DIO    H1238184   2.282   9.520  -0.238
  682DIO    H1338185   2.429   9.597  -0.295
  682DIO    H1438186   2.150   9.430  -0.487
  682DIO    H1538187   2.073   9.532  -0.366
  682DIO    H1638188   2.086   9.585  -0.667
  682DIO    H1738189   1.947   9.534  -0.573
  682DIO    H1838190   1.957   9.752  -0.444
  682DIO    H1938191   2.087   9.806  -0.551
  682DIO    H2038192   1.927   9.772  -0.617
  683DIO     F138193   4.923   9.232   8.307
  683DIO     C138194   4.845   9.180   8.210
  683DIO     C238195   4.701   9.179   8.227
  683DIO     C338196   4.613   9.120   8.124
  683DIO     C438197   4.678   9.065   8.003
  683DIO     C538198   4.822   9.067   7.989
  683DIO     F238199   4.878   9.019   7.875
  683DIO     C638200   4.906   9.124   8.091
  683DIO     F338201   5.040   9.124   8.077
  683DIO     C738202   4.466   9.118   8.140
  683DIO     C838203   4.389   8.993   8.121
  683DIO     C938204   4.244   8.990   8.136
  683DIO    C1038205   4.172   9.114   8.160
  683DIO    C1138206   4.244   9.237   8.187
  683DIO    C1238207   4.388   9.238   8.175
  683DIO     F438208   4.453   9.355   8.195
  683DIO     O138209   4.040   9.100   8.197
  683DIO    C1338210   3.945   9.195   8.159
  683DIO     O238211   3.944   9.284   8.069
  683DIO    C1438212   3.816   9.176   8.226
  683DIO    C1538213   3.750   9.044   8.232
  683DIO     F538214   3.812   8.935   8.183
  683DIO    C1638215   3.619   9.025   8.292
  683DIO    C1738216   3.543   9.139   8.343
  683DIO    C1838217   3.612   9.267   8.353
  683DIO    C1938218   3.743   9.285   8.295
  683DIO     F638219   3.806   9.402   8.321
  683DIO    C2038220   3.402   9.122   8.395
  683DIO     O338221   3.333   9.010   8.338
  683DIO    C2138222   3.289   9.035   8.205
  683DIO    C2238223   3.200   9.158   8.198
  683DIO    C2338224   3.281   9.274   8.258
  683DIO     O438225   3.325   9.242   8.389
  683DIO    C2438226   3.067   9.142   8.276
  683DIO    C2538227   2.977   9.027   8.229
  683DIO    C2638228   2.938   9.035   8.082
  683DIO     H138229   4.659   9.222   8.317
  683DIO     H238230   4.617   9.030   7.920
  683DIO     H338231   4.441   8.900   8.100
  683DIO     H438232   4.189   8.898   8.130
  683DIO     H538233   4.190   9.327   8.211
  683DIO     H638234   3.581   8.924   8.301
  683DIO     H738235   3.569   9.348   8.410
  683DIO     H838236   3.412   9.099   8.502
  683DIO     H938237   3.376   9.046   8.139
  683DIO    H1038238   3.236   8.945   8.170
  683DIO    H1138239   3.178   9.181   8.094
  683DIO    H1238240   3.220   9.364   8.264
  683DIO    H1338241   3.367   9.298   8.194
  683DIO    H1438242   3.087   9.128   8.383
  683DIO    H1538243   3.011   9.236   8.267
  683DIO    H1638244   3.024   8.931   8.249
  683DIO    H1738245   2.885   9.030   8.289
  683DIO    H1838246   2.894   9.133   8.058
  683DIO    H1938247   3.025   9.019   8.017
  683DIO    H2038248   2.865   8.958   8.058
  684DIO     F138249   4.867   3.881   2.064
  684DIO     C138250   4.789   3.792   2.000
  684DIO     C238251   4.645   3.799   2.015
  684DIO     C338252   4.556   3.701   1.948
  684DIO     C438253   4.622   3.599   1.863
  684DIO     C538254   4.766   3.595   1.849
  684DIO     F238255   4.821   3.503   1.768
  684DIO     C638256   4.850   3.691   1.917
  684DIO     F338257   4.984   3.685   1.904
  684DIO     C738258   4.410   3.706   1.964
  684DIO     C838259   4.333   3.585   2.000
  684DIO     C938260   4.188   3.589   2.015
  684DIO    C1038261   4.115   3.711   1.984
  684DIO    C1138262   4.188   3.833   1.955
  684DIO    C1238263   4.332   3.830   1.943
  684DIO     F438264   4.397   3.943   1.910
  684DIO     O138265   3.983   3.715   2.023
  684DIO    C1338266   3.889   3.784   1.947
  684DIO     O238267   3.888   3.825   1.828
  684DIO    C1438268   3.760   3.796   2.016
  684DIO    C1538269   3.693   3.679   2.078
  684DIO     F538270   3.756   3.560   2.082
  684DIO    C1638271   3.563   3.688   2.141
  684DIO    C1738272   3.487   3.812   2.137
  684DIO    C1838273   3.556   3.932   2.092
  684DIO    C1938274   3.687   3.924   2.031
  684DIO     F638275   3.750   4.041   2.004
  684DIO    C2038276   3.346   3.820   2.192
  684DIO     O338277   3.276   3.695   2.189
  684DIO    C2138278   3.233   3.659   2.058
  684DIO    C2238279   3.144   3.768   1.999
  684DIO    C2338280   3.225   3.898   2.002
  684DIO     O438281   3.269   3.926   2.135
  684DIO    C2438282   3.011   3.786   2.075
  684DIO    C2538283   2.920   3.663   2.083
  684DIO    C2638284   2.882   3.607   1.947
  684DIO     H138285   4.602   3.877   2.078
  684DIO     H238286   4.561   3.532   1.804
  684DIO     H338287   4.384   3.492   2.022
  684DIO     H438288   4.133   3.503   2.050
  684DIO     H538289   4.134   3.925   1.937
  684DIO     H638290   3.524   3.601   2.192
  684DIO     H738291   3.513   4.031   2.107
  684DIO     H838292   3.356   3.845   2.298
  684DIO     H938293   3.319   3.641   1.994
  684DIO    H1038294   3.180   3.564   2.065
  684DIO    H1138295   3.121   3.743   1.894
  684DIO    H1238296   3.163   3.982   1.969
  684DIO    H1338297   3.311   3.892   1.935
  684DIO    H1438298   3.031   3.820   2.178
  684DIO    H1538299   2.955   3.867   2.028
  684DIO    H1638300   2.968   3.585   2.143
  684DIO    H1738301   2.829   3.691   2.136
  684DIO    H1838302   2.838   3.684   1.883
  684DIO    H1938303   2.968   3.564   1.895
  684DIO    H2038304   2.808   3.527   1.959
  685DIO     F138305   5.103   9.076   3.895
  685DIO     C138306   5.026   9.066   4.005
  685DIO     C238307   4.882   9.075   3.991
  685DIO     C338308   4.793   9.067   4.109
  685DIO     C438309   4.858   9.045   4.240
  685DIO     C538310   5.003   9.036   4.251
  685DIO     F238311   5.058   9.012   4.372
  685DIO     C638312   5.086   9.045   4.134
  685DIO     F338313   5.220   9.037   4.146
  685DIO     C738314   4.646   9.078   4.097
  685DIO     C838315   4.569   9.171   4.183
  685DIO     C938316   4.425   9.181   4.172
  685DIO    C1038317   4.352   9.093   4.083
  685DIO    C1138318   4.424   9.006   3.992
  685DIO    C1238319   4.569   8.997   4.001
  685DIO     F438320   4.633   8.912   3.920
  685DIO     O138321   4.220   9.124   4.060
  685DIO    C1338322   4.125   9.024   4.039
  685DIO     O238323   4.124   8.901   4.063
  685DIO    C1438324   3.996   9.077   3.993
  685DIO    C1538325   3.930   9.190   4.062
  685DIO     F538326   3.992   9.254   4.163
  685DIO    C1638327   3.799   9.240   4.023
  685DIO    C1738328   3.723   9.174   3.918
  685DIO    C1838329   3.792   9.073   3.837
  685DIO    C1938330   3.924   9.025   3.875
  685DIO     F638331   3.986   8.943   3.788
  685DIO    C2038332   3.583   9.217   3.884
  685DIO     O338333   3.513   9.278   3.993
  685DIO    C2138334   3.469   9.183   4.090
  685DIO    C2238335   3.380   9.077   4.026
  685DIO    C2338336   3.461   9.014   3.913
  685DIO     O438337   3.505   9.114   3.821
  685DIO    C2438338   3.247   9.134   3.971
  685DIO    C2538339   3.157   9.202   4.074
  685DIO    C2638340   3.118   9.114   4.191
  685DIO     H138341   4.839   9.090   3.892
  685DIO     H238342   4.798   9.028   4.329
  685DIO     H338343   4.621   9.236   4.252
  685DIO     H438344   4.369   9.255   4.229
  685DIO     H538345   4.370   8.944   3.922
  685DIO     H638346   3.761   9.329   4.072
  685DIO     H738347   3.749   9.037   3.745
  685DIO     H838348   3.592   9.296   3.808
  685DIO     H938349   3.556   9.137   4.138
  685DIO    H1038350   3.416   9.238   4.168
  685DIO    H1138351   3.358   8.999   4.100
  685DIO    H1238352   3.400   8.942   3.857
  685DIO    H1338353   3.547   8.959   3.952
  685DIO    H1438354   3.267   9.205   3.891
  685DIO    H1538355   3.191   9.051   3.926
  685DIO    H1638356   3.204   9.294   4.111
  685DIO    H1738357   3.065   9.234   4.023
  685DIO    H1838358   3.074   9.020   4.157
  685DIO    H1938359   3.205   9.091   4.254
  685DIO    H2038360   3.045   9.165   4.254
  686DIO     F138361  10.749   7.333   9.572
  686DIO     C138362  10.671   7.256   9.651
  686DIO     C238363  10.527   7.273   9.646
  686DIO     C338364  10.438   7.192   9.733
  686DIO     C438365  10.504   7.093   9.821
  686DIO     C538366  10.648   7.079   9.824
  686DIO     F238367  10.704   6.985   9.903
  686DIO     C638368  10.732   7.159   9.739
  686DIO     F338369  10.866   7.146   9.743
  686DIO     C738370  10.292   7.208   9.730
  686DIO     C838371  10.215   7.227   9.855
  686DIO     C938372  10.070   7.242   9.853
  686DIO    C1038373   9.998   7.228   9.728
  686DIO    C1138374  10.070   7.218   9.603
  686DIO    C1238375  10.214   7.205   9.605
  686DIO     F438376  10.279   7.190   9.488
  686DIO     O138377   9.865   7.268   9.730
  686DIO    C1338378   9.771   7.203   9.651
  686DIO     O238379   9.770   7.091   9.593
  686DIO    C1438380   9.642   7.272   9.649
  686DIO    C1538381   9.576   7.317   9.773
  686DIO     F538382   9.638   7.304   9.892
  686DIO    C1638383   9.445   7.380   9.774
  686DIO    C1738384   9.369   7.395   9.650
  686DIO    C1838385   9.438   7.367   9.525
  686DIO    C1938386   9.569   7.306   9.524
  686DIO     F638387   9.632   7.296   9.405
  686DIO    C2038388   9.228   7.450   9.651
  686DIO     O338389   9.159   7.429   9.774
  686DIO    C2138390   9.115   7.295   9.791
  686DIO    C2238391   9.026   7.252   9.674
  686DIO    C2338392   9.107   7.274   9.546
  686DIO     O438393   9.151   7.409   9.537
  686DIO    C2438394   8.893   7.330   9.667
  686DIO    C2538395   8.803   7.320   9.790
  686DIO    C2638396   8.764   7.177   9.826
  686DIO     H138397  10.485   7.345   9.578
  686DIO     H238398  10.443   7.024   9.880
  686DIO     H338399  10.266   7.234   9.950
  686DIO     H438400  10.015   7.264   9.944
  686DIO     H538401  10.016   7.213   9.510
  686DIO     H638402   9.407   7.419   9.868
  686DIO     H738403   9.395   7.397   9.430
  686DIO     H838404   9.238   7.559   9.641
  686DIO     H938405   9.202   7.228   9.799
  686DIO    H1038406   9.062   7.288   9.886
  686DIO    H1138407   9.003   7.145   9.683
  686DIO    H1238408   9.046   7.253   9.458
  686DIO    H1338409   9.193   7.206   9.542
  686DIO    H1438410   8.913   7.437   9.649
  686DIO    H1538411   8.837   7.295   9.580
  686DIO    H1638412   8.850   7.368   9.877
  686DIO    H1738413   8.711   7.376   9.770
  686DIO    H1838414   8.720   7.125   9.741
  686DIO    H1938415   8.851   7.120   9.861
  686DIO    H2038416   8.690   7.177   9.907
  687DIO     F138417   7.105   7.861   7.049
  687DIO     C138418   7.027   7.777   6.978
  687DIO     C238419   6.883   7.782   6.994
  687DIO     C338420   6.795   7.690   6.920
  687DIO     C438421   6.860   7.594   6.828
  687DIO     C538422   7.004   7.590   6.814
  687DIO     F238423   7.060   7.505   6.726
  687DIO     C638424   7.088   7.681   6.888
  687DIO     F338425   7.222   7.676   6.875
  687DIO     C738426   6.648   7.693   6.936
  687DIO     C838427   6.571   7.570   6.964
  687DIO     C938428   6.426   7.573   6.979
  687DIO    C1038429   6.354   7.697   6.956
  687DIO    C1138430   6.426   7.821   6.936
  687DIO    C1238431   6.570   7.818   6.924
  687DIO     F438432   6.635   7.934   6.900
  687DIO     O138433   6.222   7.698   6.996
  687DIO    C1338434   6.127   7.772   6.925
  687DIO     O238435   6.126   7.822   6.809
  687DIO    C1438436   5.998   7.779   6.994
  687DIO    C1538437   5.932   7.659   7.049
  687DIO     F538438   5.994   7.539   7.044
  687DIO    C1638439   5.801   7.663   7.111
  687DIO    C1738440   5.725   7.787   7.117
  687DIO    C1838441   5.794   7.910   7.080
  687DIO    C1938442   5.925   7.906   7.018
  687DIO     F638443   5.988   8.024   7.000
  687DIO    C2038444   5.584   7.791   7.172
  687DIO     O338445   5.515   7.666   7.160
  687DIO    C2138446   5.471   7.640   7.027
  687DIO    C2238447   5.382   7.753   6.975
  687DIO    C2338448   5.463   7.882   6.988
  687DIO     O438449   5.507   7.901   7.122
  687DIO    C2438450   5.249   7.765   7.053
  687DIO    C2538451   5.159   7.642   7.052
  687DIO    C2638452   5.120   7.595   6.912
  687DIO     H138453   6.841   7.856   7.062
  687DIO     H238454   6.799   7.531   6.764
  687DIO     H338455   6.623   7.476   6.979
  687DIO     H438456   6.371   7.485   7.008
  687DIO     H538457   6.372   7.914   6.925
  687DIO     H638458   5.763   7.572   7.157
  687DIO     H738459   5.751   8.007   7.102
  687DIO     H838460   5.594   7.808   7.279
  687DIO     H938461   5.558   7.626   6.962
  687DIO    H1038462   5.418   7.544   7.028
  687DIO    H1138463   5.360   7.736   6.870
  687DIO    H1238464   5.402   7.968   6.961
  687DIO    H1338465   5.549   7.881   6.920
  687DIO    H1438466   5.269   7.792   7.158
  687DIO    H1538467   5.193   7.850   7.011
  687DIO    H1638468   5.206   7.559   7.106
  687DIO    H1738469   5.067   7.666   7.107
  687DIO    H1838470   5.076   7.677   6.854
  687DIO    H1938471   5.207   7.557   6.858
  687DIO    H2038472   5.047   7.515   6.919
  688DIO     F138473   8.807   7.720  -0.037
  688DIO     C138474   8.729   7.693   0.070
  688DIO     C238475   8.585   7.705   0.058
  688DIO     C338476   8.497   7.679   0.173
  688DIO     C438477   8.562   7.638   0.300
  688DIO     C538478   8.706   7.627   0.309
  688DIO     F238479   8.762   7.586   0.425
  688DIO     C638480   8.790   7.654   0.195
  688DIO     F338481   8.924   7.644   0.205
  688DIO     C738482   8.350   7.692   0.163
  688DIO     C838483   8.273   7.771   0.262
  688DIO     C938484   8.128   7.783   0.252
  688DIO    C1038485   8.056   7.708   0.151
  688DIO    C1138486   8.128   7.636   0.048
  688DIO    C1238487   8.272   7.626   0.056
  688DIO     F438488   8.337   7.554  -0.037
  688DIO     O138489   7.924   7.743   0.133
  688DIO    C1338490   7.829   7.647   0.097
  688DIO     O238491   7.828   7.522   0.103
  688DIO    C1438492   7.700   7.707   0.060
  688DIO    C1538493   7.634   7.808   0.145
  688DIO     F538494   7.696   7.856   0.255
  688DIO    C1638495   7.503   7.863   0.114
  688DIO    C1738496   7.427   7.813  -0.000
  688DIO    C1838497   7.496   7.726  -0.095
  688DIO    C1938498   7.627   7.673  -0.064
  688DIO     F638499   7.690   7.604  -0.163
  688DIO    C2038500   7.286   7.861  -0.027
  688DIO     O338501   7.217   7.905   0.090
  688DIO    C2138502   7.173   7.797   0.171
  688DIO    C2238503   7.084   7.701   0.093
  688DIO    C2338504   7.165   7.656  -0.029
  688DIO     O438505   7.209   7.768  -0.105
  688DIO    C2438506   6.951   7.766   0.047
  688DIO    C2538507   6.861   7.818   0.159
  688DIO    C2638508   6.822   7.713   0.262
  688DIO     H138509   8.543   7.734  -0.038
  688DIO     H238510   8.501   7.608   0.385
  688DIO     H338511   8.325   7.825   0.340
  688DIO     H438512   8.073   7.847   0.319
  688DIO     H538513   8.074   7.585  -0.030
  688DIO     H638514   7.465   7.943   0.176
  688DIO     H738515   7.453   7.704  -0.192
  688DIO     H838516   7.296   7.950  -0.090
  688DIO     H938517   7.260   7.744   0.212
  688DIO    H1038518   7.120   7.839   0.257
  688DIO    H1138519   7.062   7.614   0.154
  688DIO    H1238520   7.104   7.594  -0.095
  688DIO    H1338521   7.251   7.595   0.002
  688DIO    H1438522   6.971   7.848  -0.022
  688DIO    H1538523   6.895   7.691  -0.010
  688DIO    H1638524   6.908   7.903   0.209
  688DIO    H1738525   6.769   7.857   0.113
  688DIO    H1838526   6.778   7.625   0.214
  688DIO    H1938527   6.909   7.681   0.320
  688DIO    H2038528   6.749   7.754   0.331
  689DIO     F138529   3.272   8.296   5.583
  689DIO     C138530   3.195   8.213   5.655
  689DIO     C238531   3.051   8.230   5.652
  689DIO     C338532   2.962   8.141   5.731
  689DIO     C438533   3.027   8.034   5.810
  689DIO     C538534   3.172   8.020   5.811
  689DIO     F238535   3.227   7.919   5.881
  689DIO     C638536   3.255   8.108   5.734
  689DIO     F338537   3.389   8.094   5.737
  689DIO     C738538   2.816   8.157   5.730
  689DIO     C838539   2.738   8.164   5.856
  689DIO     C938540   2.594   8.180   5.855
  689DIO    C1038541   2.521   8.178   5.730
  689DIO    C1138542   2.594   8.179   5.604
  689DIO    C1238543   2.738   8.166   5.605
  689DIO     F438544   2.803   8.162   5.487
  689DIO     O138545   2.389   8.217   5.735
  689DIO    C1338546   2.294   8.160   5.650
  689DIO     O238547   2.294   8.054   5.582
  689DIO    C1438548   2.165   8.229   5.655
  689DIO    C1538549   2.099   8.262   5.783
  689DIO     F538550   2.162   8.238   5.900
  689DIO    C1638551   1.968   8.325   5.789
  689DIO    C1738552   1.892   8.351   5.667
  689DIO    C1838553   1.961   8.335   5.540
  689DIO    C1938554   2.093   8.274   5.534
  689DIO     F638555   2.155   8.275   5.414
  689DIO    C2038556   1.752   8.406   5.673
  689DIO     O338557   1.682   8.374   5.794
  689DIO    C2138558   1.638   8.238   5.798
  689DIO    C2238559   1.549   8.206   5.678
  689DIO    C2338560   1.630   8.240   5.553
  689DIO     O438561   1.674   8.375   5.556
  689DIO    C2438562   1.417   8.285   5.678
  689DIO    C2538563   1.326   8.263   5.800
  689DIO    C2638564   1.288   8.118   5.823
  689DIO     H138565   3.008   8.308   5.591
  689DIO     H238566   2.967   7.961   5.862
  689DIO     H338567   2.790   8.163   5.951
  689DIO     H438568   2.539   8.193   5.947
  689DIO     H538569   2.539   8.183   5.511
  689DIO     H638570   1.930   8.355   5.886
  689DIO     H738571   1.918   8.373   5.448
  689DIO     H838572   1.761   8.515   5.674
  689DIO     H938573   1.725   8.171   5.800
  689DIO    H1038574   1.586   8.223   5.892
  689DIO    H1138575   1.527   8.099   5.677
  689DIO    H1238576   1.569   8.227   5.463
  689DIO    H1338577   1.716   8.173   5.542
  689DIO    H1438578   1.437   8.393   5.670
  689DIO    H1538579   1.360   8.257   5.588
  689DIO    H1638580   1.373   8.303   5.890
  689DIO    H1738581   1.234   8.321   5.785
  689DIO    H1838582   1.244   8.074   5.732
  689DIO    H1938583   1.374   8.057   5.852
  689DIO    H2038584   1.214   8.111   5.903
  690DIO     F138585  10.396  10.614   5.806
  690DIO     C138586  10.318  10.699   5.876
  690DIO     C238587  10.174  10.693   5.860
  690DIO     C338588  10.085  10.786   5.933
  690DIO     C438589  10.151  10.883   6.024
  690DIO     C538590  10.295  10.887   6.038
  690DIO     F238591  10.350  10.974   6.125
  690DIO     C638592  10.379  10.795   5.965
  690DIO     F338593  10.512  10.801   5.978
  690DIO     C738594   9.939  10.783   5.917
  690DIO     C838595   9.862  10.906   5.888
  690DIO     C938596   9.717  10.902   5.873
  690DIO    C1038597   9.644  10.779   5.897
  690DIO    C1138598   9.717  10.655   5.918
  690DIO    C1238599   9.861  10.658   5.931
  690DIO     F438600   9.926  10.543   5.956
  690DIO     O138601   9.512  10.777   5.858
  690DIO    C1338602   9.418  10.704   5.929
  690DIO     O238603   9.417  10.656   6.045
  690DIO    C1438604   9.289  10.696   5.860
  690DIO    C1538605   9.222  10.816   5.804
  690DIO     F538606   9.285  10.936   5.808
  690DIO    C1638607   9.091  10.812   5.742
  690DIO    C1738608   9.016  10.687   5.738
  690DIO    C1838609   9.084  10.564   5.776
  690DIO    C1938610   9.216  10.569   5.837
  690DIO     F638611   9.279  10.451   5.857
  690DIO    C2038612   8.875  10.683   5.683
  690DIO     O338613   8.805  10.807   5.693
  690DIO    C2138614   8.762  10.835   5.825
  690DIO    C2238615   8.673  10.723   5.878
  690DIO    C2338616   8.753  10.594   5.867
  690DIO     O438617   8.798  10.573   5.733
  690DIO    C2438618   8.540  10.709   5.801
  690DIO    C2538619   8.449  10.833   5.801
  690DIO    C2638620   8.411  10.881   5.940
  690DIO     H138621  10.131  10.619   5.793
  690DIO     H238622  10.090  10.947   6.087
  690DIO     H338623   9.913  10.999   5.872
  690DIO     H438624   9.662  10.990   5.843
  690DIO     H538625   9.662  10.562   5.931
  690DIO     H638626   9.053  10.902   5.695
  690DIO     H738627   9.042  10.467   5.755
  690DIO     H838628   8.885  10.664   5.575
  690DIO     H938629   8.848  10.850   5.891
  690DIO    H1038630   8.709  10.931   5.824
  690DIO    H1138631   8.650  10.741   5.984
  690DIO    H1238632   8.692  10.508   5.896
  690DIO    H1338633   8.840  10.596   5.935
  690DIO    H1438634   8.560  10.682   5.696
  690DIO    H1538635   8.483  10.625   5.844
  690DIO    H1638636   8.497  10.915   5.745
  690DIO    H1738637   8.357  10.808   5.746
  690DIO    H1838638   8.367  10.800   5.999
  690DIO    H1938639   8.497  10.921   5.994
  690DIO    H2038640   8.337  10.962   5.932
  691DIO     F138641   4.348   6.297   8.688
  691DIO     C138642   4.270   6.361   8.599
  691DIO     C238643   4.126   6.346   8.606
  691DIO     C338644   4.038   6.414   8.509
  691DIO     C438645   4.103   6.499   8.407
  691DIO     C538646   4.247   6.513   8.402
  691DIO     F238647   4.303   6.595   8.311
  691DIO     C638648   4.331   6.445   8.498
  691DIO     F338649   4.465   6.458   8.492
  691DIO     C738650   3.891   6.398   8.513
  691DIO     C838651   3.814   6.362   8.392
  691DIO     C938652   3.669   6.348   8.396
  691DIO    C1038653   3.597   6.378   8.518
  691DIO    C1138654   3.669   6.406   8.641
  691DIO    C1238655   3.813   6.418   8.637
  691DIO     F438656   3.878   6.450   8.751
  691DIO     O138657   3.465   6.339   8.522
  691DIO    C1338658   3.370   6.414   8.591
  691DIO     O238659   3.369   6.533   8.633
  691DIO    C1438660   3.241   6.346   8.603
  691DIO    C1538661   3.175   6.284   8.486
  691DIO     F538662   3.237   6.281   8.366
  691DIO    C1638663   3.044   6.221   8.494
  691DIO    C1738664   2.968   6.224   8.619
  691DIO    C1838665   3.037   6.269   8.739
  691DIO    C1938666   3.168   6.330   8.731
  691DIO     F638667   3.231   6.356   8.848
  691DIO    C2038668   2.827   6.170   8.626
  691DIO     O338669   2.758   6.173   8.501
  691DIO    C2138670   2.714   6.304   8.466
  691DIO    C2238671   2.625   6.363   8.575
  691DIO    C2338672   2.706   6.359   8.704
  691DIO     O438673   2.750   6.226   8.732
  691DIO    C2438674   2.492   6.286   8.593
  691DIO    C2538675   2.402   6.279   8.470
  691DIO    C2638676   2.363   6.415   8.414
  691DIO     H138677   4.084   6.283   8.683
  691DIO     H238678   4.042   6.559   8.339
  691DIO     H338679   3.866   6.341   8.299
  691DIO     H438680   3.614   6.313   8.310
  691DIO     H538681   3.615   6.424   8.732
  691DIO     H638682   3.006   6.170   8.407
  691DIO     H738683   2.994   6.253   8.837
  691DIO     H838684   2.837   6.063   8.651
  691DIO     H938685   2.801   6.368   8.448
  691DIO    H1038686   2.661   6.297   8.370
  691DIO    H1138687   2.603   6.467   8.551
  691DIO    H1238688   2.645   6.392   8.789
  691DIO    H1338689   2.792   6.426   8.699
  691DIO    H1438690   2.512   6.183   8.626
  691DIO    H1538691   2.436   6.333   8.674
  691DIO    H1638692   2.449   6.219   8.391
  691DIO    H1738693   2.310   6.226   8.497
  691DIO    H1838694   2.319   6.479   8.491
  691DIO    H1938695   2.450   6.467   8.371
  691DIO    H2038696   2.290   6.403   8.334
  692DIO     F138697   5.176  10.506   2.874
  692DIO     C138698   5.099  10.483   2.982
  692DIO     C238699   4.955  10.494   2.970
  692DIO     C338700   4.866  10.472   3.086
  692DIO     C438701   4.931  10.435   3.214
  692DIO     C538702   5.076  10.425   3.223
  692DIO     F238703   5.131  10.387   3.340
  692DIO     C638704   5.159  10.448   3.108
  692DIO     F338705   5.293  10.438   3.119
  692DIO     C738706   4.719  10.484   3.076
  692DIO     C838707   4.642  10.567   3.171
  692DIO     C938708   4.498  10.578   3.162
  692DIO    C1038709   4.425  10.501   3.063
  692DIO    C1138710   4.498  10.425   2.962
  692DIO    C1238711   4.642  10.415   2.971
  692DIO     F438712   4.707  10.340   2.880
  692DIO     O138713   4.293  10.535   3.044
  692DIO    C1338714   4.198  10.438   3.011
  692DIO     O238715   4.197  10.312   3.021
  692DIO    C1438716   4.069  10.496   2.972
  692DIO    C1538717   4.003  10.600   3.054
  692DIO     F538718   4.066  10.651   3.162
  692DIO    C1638719   3.872  10.654   3.021
  692DIO    C1738720   3.796  10.600   2.908
  692DIO    C1838721   3.865  10.510   2.817
  692DIO    C1938722   3.997  10.458   2.849
  692DIO     F638723   4.059  10.386   2.753
  692DIO    C2038724   3.656  10.647   2.879
  692DIO     O338725   3.586  10.695   2.995
  692DIO    C2138726   3.542  10.590   3.080
  692DIO    C2238727   3.453  10.492   3.005
  692DIO    C2338728   3.534  10.442   2.885
  692DIO     O438729   3.578  10.552   2.805
  692DIO    C2438730   3.321  10.554   2.957
  692DIO    C2538731   3.230  10.611   3.067
  692DIO    C2638732   3.191  10.509   3.173
  692DIO     H138733   4.912  10.520   2.873
  692DIO     H238734   4.871  10.408   3.299
  692DIO     H338735   4.694  10.624   3.247
  692DIO     H438736   4.443  10.645   3.226
  692DIO     H538737   4.443  10.372   2.886
  692DIO     H638738   3.834  10.736   3.080
  692DIO     H738739   3.822  10.485   2.720
  692DIO     H838740   3.665  10.734   2.813
  692DIO     H938741   3.629  10.538   3.123
  692DIO    H1038742   3.489  10.635   3.165
  692DIO    H1138743   3.431  10.406   3.069
  692DIO    H1238744   3.473  10.378   2.821
  692DIO    H1338745   3.620  10.383   2.917
  692DIO    H1438746   3.340  10.635   2.885
  692DIO    H1538747   3.264  10.478   2.902
  692DIO    H1638748   3.277  10.697   3.114
  692DIO    H1738749   3.138  10.648   3.020
  692DIO    H1838750   3.148  10.420   3.128
  692DIO    H1938751   3.278  10.479   3.233
  692DIO    H2038752   3.118  10.552   3.241
  693DIO     F138753   2.439   3.483   1.729
  693DIO     C138754   2.361   3.435   1.828
  693DIO     C238755   2.217   3.450   1.819
  693DIO     C338756   2.129   3.401   1.927
  693DIO     C438757   2.194   3.336   2.042
  693DIO     C538758   2.338   3.323   2.049
  693DIO     F238759   2.394   3.259   2.154
  693DIO     C638760   2.422   3.372   1.943
  693DIO     F338761   2.556   3.360   1.951
  693DIO     C738762   1.982   3.415   1.919
  693DIO     C838763   1.905   3.473   2.032
  693DIO     C938764   1.760   3.487   2.025
  693DIO    C1038765   1.688   3.434   1.911
  693DIO    C1138766   1.760   3.384   1.795
  693DIO    C1238767   1.904   3.372   1.801
  693DIO     F438768   1.969   3.320   1.695
  693DIO     O138769   1.556   3.472   1.900
  693DIO    C1338770   1.461   3.385   1.846
  693DIO     O238771   1.460   3.261   1.827
  693DIO    C1438772   1.332   3.450   1.822
  693DIO    C1538773   1.266   3.533   1.925
  693DIO     F538774   1.328   3.558   2.042
  693DIO    C1638775   1.135   3.593   1.906
  693DIO    C1738776   1.059   3.567   1.784
  693DIO    C1838777   1.128   3.500   1.674
  693DIO    C1938778   1.259   3.442   1.693
  693DIO     F638779   1.322   3.395   1.583
  693DIO    C2038780   0.918   3.619   1.766
  693DIO     O338781   0.849   3.639   1.890
  693DIO    C2138782   0.805   3.517   1.948
  693DIO    C2238783   0.716   3.439   1.852
  693DIO    C2338784   0.797   3.419   1.724
  693DIO     O438785   0.841   3.544   1.672
  693DIO    C2438786   0.583   3.511   1.820
  693DIO    C2538787   0.493   3.540   1.940
  693DIO    C2638788   0.454   3.417   2.020
  693DIO     H138789   2.175   3.497   1.731
  693DIO     H238790   2.133   3.289   2.120
  693DIO     H338791   1.957   3.511   2.119
  693DIO     H438792   1.705   3.536   2.103
  693DIO     H538793   1.706   3.350   1.708
  693DIO     H638794   1.097   3.659   1.982
  693DIO     H738795   1.085   3.498   1.574
  693DIO     H838796   0.928   3.719   1.723
  693DIO     H938797   0.892   3.457   1.978
  693DIO    H1038798   0.752   3.541   2.041
  693DIO    H1138799   0.694   3.340   1.895
  693DIO    H1238800   0.736   3.371   1.647
  693DIO    H1338801   0.883   3.353   1.742
  693DIO    H1438802   0.603   3.606   1.769
  693DIO    H1538803   0.527   3.449   1.749
  693DIO    H1638804   0.540   3.613   2.007
  693DIO    H1738805   0.401   3.588   1.903
  693DIO    H1838806   0.410   3.340   1.956
  693DIO    H1938807   0.541   3.374   2.071
  693DIO    H2038808   0.381   3.443   2.097
  694DIO     F138809   5.137   8.334   2.018
  694DIO     C138810   5.059   8.418   2.089
  694DIO     C238811   4.915   8.412   2.073
  694DIO     C338812   4.826   8.505   2.147
  694DIO     C438813   4.892   8.600   2.240
  694DIO     C538814   5.036   8.604   2.254
  694DIO     F238815   5.091   8.690   2.342
  694DIO     C638816   5.120   8.513   2.179
  694DIO     F338817   5.254   8.518   2.193
  694DIO     C738818   4.680   8.501   2.132
  694DIO     C838819   4.603   8.625   2.104
  694DIO     C938820   4.458   8.621   2.089
  694DIO    C1038821   4.385   8.498   2.111
  694DIO    C1138822   4.458   8.373   2.131
  694DIO    C1238823   4.602   8.376   2.143
  694DIO     F438824   4.667   8.261   2.167
  694DIO     O138825   4.253   8.497   2.072
  694DIO    C1338826   4.159   8.422   2.142
  694DIO     O238827   4.158   8.373   2.258
  694DIO    C1438828   4.030   8.415   2.073
  694DIO    C1538829   3.963   8.536   2.019
  694DIO     F538830   4.026   8.656   2.024
  694DIO    C1638831   3.833   8.532   1.956
  694DIO    C1738832   3.757   8.408   1.951
  694DIO    C1838833   3.826   8.285   1.987
  694DIO    C1938834   3.957   8.289   2.049
  694DIO     F638835   4.020   8.170   2.067
  694DIO    C2038836   3.616   8.404   1.896
  694DIO     O338837   3.546   8.529   1.908
  694DIO    C2138838   3.503   8.555   2.041
  694DIO    C2238839   3.414   8.442   2.092
  694DIO    C2338840   3.495   8.313   2.079
  694DIO     O438841   3.539   8.294   1.945
  694DIO    C2438842   3.281   8.429   2.014
  694DIO    C2538843   3.190   8.553   2.016
  694DIO    C2638844   3.152   8.599   2.155
  694DIO     H138845   4.872   8.339   2.005
  694DIO     H238846   4.831   8.663   2.304
  694DIO     H338847   4.654   8.719   2.089
  694DIO     H438848   4.403   8.710   2.061
  694DIO     H538849   4.404   8.281   2.142
  694DIO     H638850   3.794   8.623   1.911
  694DIO     H738851   3.783   8.188   1.965
  694DIO     H838852   3.626   8.387   1.788
  694DIO     H938853   3.589   8.568   2.106
  694DIO    H1038854   3.450   8.651   2.040
  694DIO    H1138855   3.391   8.459   2.198
  694DIO    H1238856   3.433   8.226   2.106
  694DIO    H1338857   3.581   8.314   2.147
  694DIO    H1438858   3.301   8.404   1.909
  694DIO    H1538859   3.225   8.345   2.056
  694DIO    H1638860   3.238   8.635   1.962
  694DIO    H1738861   3.099   8.529   1.961
  694DIO    H1838862   3.108   8.517   2.214
  694DIO    H1938863   3.238   8.638   2.210
  694DIO    H2038864   3.078   8.680   2.149
  695DIO     F138865  10.972  -0.611   2.713
  695DIO     C138866  10.895  -0.702   2.651
  695DIO     C238867  10.750  -0.694   2.667
  695DIO     C338868  10.662  -0.793   2.602
  695DIO     C438869  10.727  -0.898   2.519
  695DIO     C538870  10.871  -0.903   2.506
  695DIO     F238871  10.927  -0.997   2.426
  695DIO     C638872  10.955  -0.805   2.571
  695DIO     F338873  11.089  -0.811   2.558
  695DIO     C738874  10.515  -0.789   2.617
  695DIO     C838875  10.438  -0.909   2.657
  695DIO     C938876  10.293  -0.904   2.671
  695DIO    C1038877  10.221  -0.783   2.637
  695DIO    C1138878  10.293  -0.661   2.605
  695DIO    C1238879  10.437  -0.665   2.593
  695DIO     F438880  10.502  -0.552   2.558
  695DIO     O138881  10.089  -0.778   2.676
  695DIO    C1338882   9.994  -0.711   2.599
  695DIO     O238883   9.993  -0.673   2.479
  695DIO    C1438884   9.865  -0.697   2.667
  695DIO    C1538885   9.799  -0.812   2.732
  695DIO     F538886   9.861  -0.932   2.739
  695DIO    C1638887   9.668  -0.802   2.794
  695DIO    C1738888   9.592  -0.678   2.788
  695DIO    C1838889   9.661  -0.559   2.739
  695DIO    C1938890   9.793  -0.569   2.679
  695DIO     F638891   9.855  -0.453   2.649
  695DIO    C2038892   9.451  -0.669   2.842
  695DIO     O338893   9.382  -0.794   2.842
  695DIO    C2138894   9.338  -0.833   2.713
  695DIO    C2238895   9.249  -0.726   2.651
  695DIO    C2338896   9.330  -0.596   2.651
  695DIO     O438897   9.374  -0.564   2.782
  695DIO    C2438898   9.116  -0.705   2.727
  695DIO    C2538899   9.026  -0.828   2.737
  695DIO    C2638900   8.987  -0.888   2.603
  695DIO     H138901  10.708  -0.615   2.727
  695DIO     H238902  10.667  -0.967   2.462
  695DIO     H338903  10.490  -1.001   2.680
  695DIO     H438904  10.238  -0.989   2.708
  695DIO     H538905  10.239  -0.570   2.585
  695DIO     H638906   9.630  -0.888   2.848
  695DIO     H738907   9.618  -0.460   2.752
  695DIO     H838908   9.461  -0.641   2.948
  695DIO     H938909   9.425  -0.853   2.649
  695DIO    H1038910   9.285  -0.928   2.722
  695DIO    H1138911   9.227  -0.753   2.547
  695DIO    H1238912   9.269  -0.512   2.615
  695DIO    H1338913   9.416  -0.603   2.583
  695DIO    H1438914   9.136  -0.669   2.829
  695DIO    H1538915   9.060  -0.626   2.677
  695DIO    H1638916   9.073  -0.905   2.799
  695DIO    H1738917   8.934  -0.799   2.790
  695DIO    H1838918   8.943  -0.813   2.537
  695DIO    H1938919   9.074  -0.932   2.552
  695DIO    H2038920   8.914  -0.968   2.617
  696DIO     F138921   7.724  -0.864   9.615
  696DIO     C138922   7.646  -0.755   9.599
  696DIO     C238923   7.502  -0.771   9.592
  696DIO     C338924   7.413  -0.654   9.573
  696DIO     C438925   7.479  -0.521   9.562
  696DIO     C538926   7.623  -0.508   9.569
  696DIO     F238927   7.678  -0.386   9.564
  696DIO     C638928   7.707  -0.624   9.588
  696DIO     F338929   7.841  -0.611   9.593
  696DIO     C738930   7.267  -0.668   9.565
  696DIO     C838931   7.190  -0.607   9.454
  696DIO     C938932   7.045  -0.620   9.447
  696DIO    C1038933   6.972  -0.686   9.554
  696DIO    C1138934   7.045  -0.753   9.660
  696DIO    C1238935   7.189  -0.742   9.666
  696DIO     F438936   7.254  -0.801   9.768
  696DIO     O138937   6.840  -0.715   9.529
  696DIO    C1338938   6.746  -0.712   9.631
  696DIO     O238939   6.745  -0.659   9.745
  696DIO    C1438940   6.617  -0.769   9.590
  696DIO    C1538941   6.550  -0.729   9.464
  696DIO     F538942   6.613  -0.646   9.378
  696DIO    C1638943   6.420  -0.778   9.425
  696DIO    C1738944   6.344  -0.865   9.514
  696DIO    C1838945   6.413  -0.920   9.631
  696DIO    C1938946   6.544  -0.871   9.669
  696DIO     F638947   6.607  -0.936   9.769
  696DIO    C2038948   6.203  -0.909   9.481
  696DIO     O338949   6.133  -0.817   9.395
  696DIO    C2138950   6.090  -0.700   9.464
  696DIO    C2238951   6.001  -0.737   9.583
  696DIO    C2338952   6.082  -0.832   9.671
  696DIO     O438953   6.126  -0.945   9.595
  696DIO    C2438954   5.868  -0.804   9.541
  696DIO    C2538955   5.777  -0.720   9.449
  696DIO    C2638956   5.739  -0.585   9.508
  696DIO     H138957   7.459  -0.870   9.602
  696DIO     H238958   7.418  -0.431   9.558
  696DIO     H338959   7.241  -0.555   9.374
  696DIO     H438960   6.990  -0.582   9.362
  696DIO     H538961   6.991  -0.807   9.737
  696DIO     H638962   6.381  -0.752   9.327
  696DIO     H738963   6.370  -1.001   9.688
  696DIO     H838964   6.213  -1.001   9.422
  696DIO     H938965   6.176  -0.642   9.498
  696DIO    H1038966   6.037  -0.637   9.393
  696DIO    H1138967   5.978  -0.647   9.641
  696DIO    H1238968   6.020  -0.869   9.753
  696DIO    H1338969   6.168  -0.781   9.715
  696DIO    H1438970   5.888  -0.899   9.490
  696DIO    H1538971   5.812  -0.828   9.631
  696DIO    H1638972   5.825  -0.706   9.352
  696DIO    H1738973   5.686  -0.778   9.431
  696DIO    H1838974   5.695  -0.596   9.607
  696DIO    H1938975   5.825  -0.519   9.515
  696DIO    H2038976   5.665  -0.536   9.443
  697DIO     F138977   6.116   3.747   1.356
  697DIO     C138978   6.039   3.837   1.418
  697DIO     C238979   5.894   3.830   1.402
  697DIO     C338980   5.806   3.929   1.467
  697DIO     C438981   5.871   4.033   1.550
  697DIO     C538982   6.015   4.038   1.563
  697DIO     F238983   6.071   4.132   1.643
  697DIO     C638984   6.099   3.941   1.498
  697DIO     F338985   6.233   3.947   1.511
  697DIO     C738986   5.659   3.924   1.452
  697DIO     C838987   5.582   4.044   1.412
  697DIO     C938988   5.437   4.040   1.398
  697DIO    C1038989   5.365   3.919   1.432
  697DIO    C1138990   5.437   3.797   1.464
  697DIO    C1238991   5.581   3.801   1.476
  697DIO     F438992   5.646   3.688   1.511
  697DIO     O138993   5.233   3.914   1.393
  697DIO    C1338994   5.138   3.847   1.470
  697DIO     O238995   5.137   3.809   1.590
  697DIO    C1438996   5.009   3.833   1.402
  697DIO    C1538997   4.943   3.948   1.337
  697DIO     F538998   5.005   4.067   1.330
  697DIO    C1638999   4.812   3.938   1.275
  697DIO    C1739000   4.736   3.814   1.281
  697DIO    C1839001   4.805   3.695   1.330
  697DIO    C1939002   4.937   3.705   1.390
  697DIO     F639003   4.999   3.588   1.420
  697DIO    C2039004   4.595   3.805   1.227
  697DIO     O339005   4.526   3.930   1.226
  697DIO    C2139006   4.482   3.969   1.356
  697DIO    C2239007   4.393   3.861   1.418
  697DIO    C2339008   4.474   3.732   1.418
  697DIO     O439009   4.518   3.700   1.286
  697DIO    C2439010   4.260   3.841   1.342
  697DIO    C2539011   4.170   3.964   1.332
  697DIO    C2639012   4.131   4.024   1.466
  697DIO     H139013   5.852   3.751   1.342
  697DIO     H239014   5.811   4.102   1.607
  697DIO     H339015   5.634   4.136   1.389
  697DIO     H439016   5.382   4.125   1.361
  697DIO     H539017   5.383   3.706   1.484
  697DIO     H639018   4.774   4.024   1.221
  697DIO     H739019   4.762   3.596   1.316
  697DIO     H839020   4.605   3.777   1.121
  697DIO     H939021   4.569   3.989   1.420
  697DIO    H1039022   4.429   4.064   1.347
  697DIO    H1139023   4.371   3.889   1.522
  697DIO    H1239024   4.413   3.648   1.454
  697DIO    H1339025   4.560   3.739   1.486
  697DIO    H1439026   4.280   3.805   1.240
  697DIO    H1539027   4.204   3.761   1.392
  697DIO    H1639028   4.217   4.041   1.270
  697DIO    H1739029   4.078   3.935   1.279
  697DIO    H1839030   4.087   3.948   1.532
  697DIO    H1939031   4.218   4.068   1.517
  697DIO    H2039032   4.058   4.104   1.452
  698DIO     F139033   3.424   2.715   6.183
  698DIO     C139034   3.346   2.662   6.086
  698DIO     C239035   3.202   2.662   6.103
  698DIO     C339036   3.113   2.603   6.000
  698DIO     C439037   3.179   2.548   5.879
  698DIO     C539038   3.323   2.549   5.865
  698DIO     F239039   3.378   2.502   5.751
  698DIO     C639040   3.407   2.607   5.967
  698DIO     F339041   3.540   2.607   5.953
  698DIO     C739042   2.967   2.600   6.016
  698DIO     C839043   2.890   2.475   5.996
  698DIO     C939044   2.745   2.473   6.011
  698DIO    C1039045   2.672   2.596   6.036
  698DIO    C1139046   2.745   2.719   6.063
  698DIO    C1239047   2.889   2.721   6.051
  698DIO     F439048   2.954   2.837   6.071
  698DIO     O139049   2.540   2.583   6.073
  698DIO    C1339050   2.446   2.678   6.035
  698DIO     O239051   2.445   2.766   5.945
  698DIO    C1439052   2.316   2.659   6.102
  698DIO    C1539053   2.250   2.527   6.108
  698DIO     F539054   2.313   2.417   6.059
  698DIO    C1639055   2.119   2.507   6.167
  698DIO    C1739056   2.044   2.621   6.218
  698DIO    C1839057   2.112   2.749   6.229
  698DIO    C1939058   2.244   2.768   6.171
  698DIO     F639059   2.306   2.885   6.197
  698DIO    C2039060   1.903   2.604   6.271
  698DIO     O339061   1.833   2.493   6.214
  698DIO    C2139062   1.789   2.517   6.081
  698DIO    C2239063   1.701   2.641   6.074
  698DIO    C2339064   1.781   2.756   6.134
  698DIO     O439065   1.826   2.725   6.265
  698DIO    C2439066   1.568   2.624   6.151
  698DIO    C2539067   1.477   2.510   6.105
  698DIO    C2639068   1.439   2.518   5.958
  698DIO     H139069   3.159   2.705   6.193
  698DIO     H239070   3.118   2.512   5.796
  698DIO     H339071   2.941   2.383   5.976
  698DIO     H439072   2.690   2.380   6.006
  698DIO     H539073   2.690   2.809   6.087
  698DIO     H639074   2.081   2.406   6.176
  698DIO     H739075   2.069   2.831   6.286
  698DIO     H839076   1.913   2.581   6.377
  698DIO     H939077   1.876   2.528   6.015
  698DIO    H1039078   1.737   2.428   6.046
  698DIO    H1139079   1.678   2.664   5.970
  698DIO    H1239080   1.720   2.847   6.140
  698DIO    H1339081   1.867   2.780   6.070
  698DIO    H1439082   1.588   2.610   6.258
  698DIO    H1539083   1.511   2.718   6.143
  698DIO    H1639084   1.524   2.413   6.125
  698DIO    H1739085   1.385   2.512   6.165
  698DIO    H1839086   1.395   2.615   5.934
  698DIO    H1939087   1.525   2.502   5.893
  698DIO    H2039088   1.365   2.441   5.934
  699DIO     F139089   1.183   8.166   5.045
  699DIO     C139090   1.105   8.059   5.073
  699DIO     C239091   0.961   8.075   5.077
  699DIO     C339092   0.872   7.962   5.110
  699DIO     C439093   0.938   7.831   5.135
  699DIO     C539094   1.082   7.817   5.130
  699DIO     F239095   1.137   7.696   5.149
  699DIO     C639096   1.166   7.931   5.098
  699DIO     F339097   1.299   7.917   5.095
  699DIO     C739098   0.726   7.976   5.116
  699DIO     C839099   0.649   7.928   5.233
  699DIO     C939100   0.504   7.942   5.239
  699DIO    C1039101   0.431   7.995   5.125
  699DIO    C1139102   0.504   8.051   5.012
  699DIO    C1239103   0.648   8.039   5.007
  699DIO     F439104   0.713   8.086   4.899
  699DIO     O139105   0.299   8.028   5.147
  699DIO    C1339106   0.205   8.013   5.046
  699DIO     O239107   0.204   7.947   4.938
  699DIO    C1439108   0.076   8.074   5.080
  699DIO    C1539109   0.009   8.048   5.210
  699DIO     F539110   0.072   7.975   5.304
  699DIO    C1639111  -0.122   8.102   5.243
  699DIO    C1739112  -0.197   8.178   5.144
  699DIO    C1839113  -0.129   8.219   5.022
  699DIO    C1939114   0.003   8.167   4.990
  699DIO     F639115   0.066   8.220   4.883
  699DIO    C2039116  -0.338   8.225   5.173
  699DIO     O339117  -0.408   8.143   5.268
  699DIO    C2139118  -0.451   8.020   5.212
  699DIO    C2239119  -0.540   8.043   5.091
  699DIO    C2339120  -0.460   8.128   4.993
  699DIO     O439121  -0.415   8.248   5.055
  699DIO    C2439122  -0.673   8.114   5.125
  699DIO    C2539123  -0.764   8.041   5.225
  699DIO    C2639124  -0.802   7.901   5.182
  699DIO     H139125   0.918   8.173   5.056
  699DIO     H239126   0.877   7.742   5.149
  699DIO     H339127   0.700   7.886   5.318
  699DIO     H439128   0.449   7.914   5.328
  699DIO     H539129   0.449   8.095   4.930
  699DIO     H639130  -0.160   8.086   5.343
  699DIO     H739131  -0.171   8.294   4.956
  699DIO     H839132  -0.328   8.323   5.221
  699DIO     H939133  -0.365   7.959   5.186
  699DIO    H1039134  -0.504   7.965   5.291
  699DIO    H1139135  -0.563   7.947   5.043
  699DIO    H1239136  -0.521   8.156   4.906
  699DIO    H1339137  -0.373   8.072   4.954
  699DIO    H1439138  -0.653   8.214   5.164
  699DIO    H1539139  -0.730   8.128   5.032
  699DIO    H1639140  -0.716   8.038   5.324
  699DIO    H1739141  -0.856   8.100   5.237
  699DIO    H1839142  -0.846   7.900   5.082
  699DIO    H1939143  -0.716   7.834   5.182
  699DIO    H2039144  -0.876   7.859   5.252
  700DIO     F139145   6.355   5.888   6.859
  700DIO     C139146   6.277   5.826   6.949
  700DIO     C239147   6.133   5.841   6.942
  700DIO     C339148   6.044   5.776   7.041
  700DIO     C439149   6.110   5.693   7.145
  700DIO     C539150   6.254   5.679   7.150
  700DIO     F239151   6.310   5.600   7.243
  700DIO     C639152   6.338   5.745   7.052
  700DIO     F339153   6.472   5.732   7.058
  700DIO     C739154   5.898   5.791   7.036
  700DIO     C839155   5.821   5.830   7.156
  700DIO     C939156   5.676   5.845   7.152
  700DIO    C1039157   5.604   5.811   7.031
  700DIO    C1139158   5.676   5.780   6.909
  700DIO    C1239159   5.820   5.768   6.913
  700DIO     F439160   5.885   5.733   6.800
  700DIO     O139161   5.471   5.850   7.026
  700DIO    C1339162   5.377   5.773   6.958
  700DIO     O239163   5.376   5.653   6.920
  700DIO    C1439164   5.248   5.842   6.945
  700DIO    C1539165   5.182   5.906   7.060
  700DIO     F539166   5.244   5.913   7.180
  700DIO    C1639167   5.051   5.969   7.051
  700DIO    C1739168   4.975   5.963   6.926
  700DIO    C1839169   5.044   5.915   6.807
  700DIO    C1939170   5.175   5.854   6.817
  700DIO     F639171   5.238   5.825   6.700
  700DIO    C2039172   4.834   6.017   6.917
  700DIO     O339173   4.765   6.017   7.042
  700DIO    C2139174   4.721   5.887   7.081
  700DIO    C2239175   4.632   5.825   6.973
  700DIO    C2339176   4.713   5.826   6.844
  700DIO     O439177   4.757   5.958   6.812
  700DIO    C2439178   4.499   5.901   6.953
  700DIO    C2539179   4.409   5.911   7.076
  700DIO    C2639180   4.370   5.777   7.136
  700DIO     H139181   6.091   5.902   6.863
  700DIO     H239182   6.049   5.635   7.214
  700DIO     H339183   5.872   5.854   7.248
  700DIO     H439184   5.621   5.882   7.237
  700DIO     H539185   5.622   5.760   6.817
  700DIO     H639186   5.013   6.022   7.137
  700DIO     H739187   5.001   5.928   6.708
  700DIO     H839188   4.844   6.123   6.890
  700DIO     H939189   4.808   5.823   7.100
  700DIO    H1039190   4.668   5.896   7.176
  700DIO    H1139191   4.609   5.721   7.000
  700DIO    H1239192   4.652   5.791   6.760
  700DIO    H1339193   4.799   5.758   6.851
  700DIO    H1439194   4.519   6.003   6.918
  700DIO    H1539195   4.443   5.852   6.873
  700DIO    H1639196   4.456   5.973   7.154
  700DIO    H1739197   4.317   5.964   7.047
  700DIO    H1839198   4.326   5.711   7.060
  700DIO    H1939199   4.457   5.726   7.179
  700DIO    H2039200   4.296   5.790   7.215
  701DIO     F139201   5.666  10.845   1.414
  701DIO     C139202   5.588  10.830   1.305
  701DIO     C239203   5.444  10.823   1.320
  701DIO     C339204   5.355  10.804   1.204
  701DIO     C439205   5.421  10.794   1.071
  701DIO     C539206   5.565  10.801   1.058
  701DIO     F239207   5.620  10.796   0.935
  701DIO     C639208   5.649  10.819   1.174
  701DIO     F339209   5.782  10.824   1.161
  701DIO     C739210   5.209  10.796   1.217
  701DIO     C839211   5.132  10.686   1.156
  701DIO     C939212   4.987  10.678   1.169
  701DIO    C1039213   4.914  10.785   1.235
  701DIO    C1139214   4.987  10.891   1.303
  701DIO    C1239215   5.131  10.897   1.292
  701DIO     F439216   5.196  10.999   1.352
  701DIO     O139217   4.782  10.760   1.265
  701DIO    C1339218   4.688  10.862   1.262
  701DIO     O239219   4.687  10.976   1.209
  701DIO    C1439220   4.558  10.821   1.318
  701DIO    C1539221   4.492  10.695   1.278
  701DIO     F539222   4.555  10.610   1.194
  701DIO    C1639223   4.361  10.656   1.327
  701DIO    C1739224   4.286  10.745   1.415
  701DIO    C1839225   4.354  10.861   1.469
  701DIO    C1939226   4.486  10.899   1.421
  701DIO     F639227   4.548  11.000   1.486
  701DIO    C2039228   4.145  10.711   1.458
  701DIO     O339229   4.075  10.626   1.366
  701DIO    C2139230   4.031  10.696   1.249
  701DIO    C2239231   3.943  10.814   1.286
  701DIO    C2339232   4.023  10.901   1.382
  701DIO     O439233   4.068  10.826   1.495
  701DIO    C2439234   3.810  10.771   1.353
  701DIO    C2539235   3.719  10.681   1.269
  701DIO    C2639236   3.681  10.739   1.134
  701DIO     H139237   5.401  10.833   1.420
  701DIO     H239238   5.360  10.790   0.981
  701DIO     H339239   5.183  10.606   1.104
  701DIO     H439240   4.932  10.593   1.131
  701DIO     H539241   4.932  10.968   1.357
  701DIO     H639242   4.323  10.558   1.300
  701DIO     H739243   4.311  10.918   1.551
  701DIO     H839244   4.155  10.652   1.550
  701DIO     H939245   4.118  10.729   1.192
  701DIO    H1039246   3.979  10.624   1.186
  701DIO    H1139247   3.920  10.872   1.196
  701DIO    H1239248   3.962  10.984   1.420
  701DIO    H1339249   4.109  10.946   1.331
  701DIO    H1439250   3.830  10.721   1.448
  701DIO    H1539251   3.753  10.862   1.378
  701DIO    H1639252   3.766  10.583   1.255
  701DIO    H1739253   3.627  10.662   1.327
  701DIO    H1839254   3.637  10.839   1.146
  701DIO    H1939255   3.767  10.747   1.068
  701DIO    H2039256   3.607  10.675   1.085
  702DIO     F139257   3.308   4.144  10.554
  702DIO     C139258   3.230   4.091  10.458
  702DIO     C239259   3.086   4.091  10.475
  702DIO     C339260   2.998   4.032  10.372
  702DIO     C439261   3.063   3.976  10.251
  702DIO     C539262   3.207   3.978  10.237
  702DIO     F239263   3.263   3.930  10.123
  702DIO     C639264   3.291   4.036  10.339
  702DIO     F339265   3.425   4.036  10.325
  702DIO     C739266   2.851   4.029  10.388
  702DIO     C839267   2.774   3.904  10.369
  702DIO     C939268   2.629   3.902  10.384
  702DIO    C1039269   2.557   4.025  10.408
  702DIO    C1139270   2.629   4.148  10.435
  702DIO    C1239271   2.773   4.150  10.422
  702DIO     F439272   2.838   4.266  10.442
  702DIO     O139273   2.425   4.012  10.445
  702DIO    C1339274   2.330   4.107  10.406
  702DIO     O239275   2.329   4.195  10.317
  702DIO    C1439276   2.201   4.088  10.473
  702DIO    C1539277   2.135   3.956  10.480
  702DIO     F539278   2.197   3.846  10.432
  702DIO    C1639279   2.004   3.937  10.540
  702DIO    C1739280   1.928   4.051  10.590
  702DIO    C1839281   1.997   4.179  10.601
  702DIO    C1939282   2.128   4.197  10.542
  702DIO     F639283   2.191   4.314  10.568
  702DIO    C2039284   1.787   4.034  10.643
  702DIO     O339285   1.718   3.922  10.586
  702DIO    C2139286   1.674   3.946  10.453
  702DIO    C2239287   1.585   4.070  10.446
  702DIO    C2339288   1.666   4.186  10.505
  702DIO     O439289   1.710   4.154  10.637
  702DIO    C2439290   1.452   4.054  10.523
  702DIO    C2539291   1.362   3.939  10.477
  702DIO    C2639292   1.323   3.947  10.330
  702DIO     H139293   3.044   4.134  10.564
  702DIO     H239294   3.002   3.941  10.168
  702DIO     H339295   2.826   3.812  10.348
  702DIO     H439296   2.574   3.809  10.378
  702DIO     H539297   2.575   4.239  10.458
  702DIO     H639298   1.966   3.836  10.549
  702DIO     H739299   1.954   4.261  10.657
  702DIO     H839300   1.797   4.011  10.749
  702DIO     H939301   1.761   3.957  10.387
  702DIO    H1039302   1.621   3.857  10.418
  702DIO    H1139303   1.563   4.093  10.341
  702DIO    H1239304   1.605   4.276  10.511
  702DIO    H1339305   1.752   4.210  10.442
  702DIO    H1439306   1.472   4.040  10.630
  702DIO    H1539307   1.396   4.147  10.515
  702DIO    H1639308   1.409   3.842  10.497
  702DIO    H1739309   1.270   3.942  10.537
  702DIO    H1839310   1.279   4.044  10.306
  702DIO    H1939311   1.410   3.931  10.265
  702DIO    H2039312   1.250   3.869  10.306
  703DIO     F139313   9.340   9.782   8.919
  703DIO     C139314   9.263   9.826   8.818
  703DIO     C239315   9.118   9.812   8.828
  703DIO     C339316   9.030   9.857   8.718
  703DIO     C439317   9.095   9.918   8.600
  703DIO     C539318   9.239   9.931   8.593
  703DIO     F239319   9.295   9.990   8.486
  703DIO     C639320   9.323   9.885   8.701
  703DIO     F339321   9.457   9.896   8.693
  703DIO     C739322   8.883   9.843   8.726
  703DIO     C839323   8.806   9.781   8.616
  703DIO     C939324   8.661   9.768   8.623
  703DIO    C1039325   8.589   9.824   8.735
  703DIO    C1139326   8.661   9.879   8.849
  703DIO    C1239327   8.805   9.890   8.843
  703DIO     F439328   8.870   9.945   8.947
  703DIO     O139329   8.457   9.787   8.747
  703DIO    C1339330   8.362   9.875   8.799
  703DIO     O239331   8.361  10.001   8.813
  703DIO    C1439332   8.233   9.811   8.825
  703DIO    C1539333   8.167   9.725   8.725
  703DIO     F539334   8.229   9.696   8.609
  703DIO    C1639335   8.036   9.666   8.746
  703DIO    C1739336   7.960   9.696   8.867
  703DIO    C1839337   8.029   9.766   8.975
  703DIO    C1939338   8.161   9.824   8.954
  703DIO     F639339   8.223   9.875   9.062
  703DIO    C2039340   7.819   9.644   8.886
  703DIO     O339341   7.750   9.620   8.764
  703DIO    C2139342   7.706   9.740   8.701
  703DIO    C2239343   7.617   9.822   8.794
  703DIO    C2339344   7.698   9.846   8.922
  703DIO     O439345   7.742   9.723   8.978
  703DIO    C2439346   7.484   9.751   8.829
  703DIO    C2539347   7.394   9.717   8.710
  703DIO    C2639348   7.355   9.838   8.626
  703DIO     H139349   9.076   9.768   8.917
  703DIO     H239350   9.035   9.961   8.522
  703DIO     H339351   8.858   9.740   8.530
  703DIO     H439352   8.606   9.715   8.546
  703DIO     H539353   8.607   9.916   8.935
  703DIO     H639354   7.998   9.597   8.672
  703DIO     H739355   7.986   9.772   9.074
  703DIO     H839356   7.829   9.546   8.934
  703DIO     H939357   7.793   9.799   8.669
  703DIO    H1039358   7.653   9.713   8.609
  703DIO    H1139359   7.595   9.918   8.748
  703DIO    H1239360   7.637   9.897   8.997
  703DIO    H1339361   7.784   9.911   8.901
  703DIO    H1439362   7.504   9.658   8.883
  703DIO    H1539363   7.428   9.815   8.898
  703DIO    H1639364   7.441   9.642   8.646
  703DIO    H1739365   7.302   9.671   8.749
  703DIO    H1839366   7.311   9.917   8.687
  703DIO    H1939367   7.442   9.879   8.573
  703DIO    H2039368   7.282   9.809   8.550
  704DIO     F139369   9.620   2.289   2.235
  704DIO     C139370   9.543   2.206   2.306
  704DIO     C239371   9.398   2.222   2.303
  704DIO     C339372   9.310   2.134   2.382
  704DIO     C439373   9.375   2.027   2.461
  704DIO     C539374   9.519   2.013   2.462
  704DIO     F239375   9.575   1.912   2.532
  704DIO     C639376   9.603   2.101   2.385
  704DIO     F339377   9.737   2.087   2.388
  704DIO     C739378   9.163   2.150   2.381
  704DIO     C839379   9.086   2.157   2.507
  704DIO     C939380   8.941   2.172   2.507
  704DIO    C1039381   8.869   2.171   2.381
  704DIO    C1139382   8.941   2.172   2.255
  704DIO    C1239383   9.085   2.159   2.256
  704DIO     F439384   9.150   2.155   2.138
  704DIO     O139385   8.737   2.209   2.387
  704DIO    C1339386   8.642   2.152   2.302
  704DIO     O239387   8.641   2.047   2.233
  704DIO    C1439388   8.513   2.222   2.306
  704DIO    C1539389   8.447   2.255   2.434
  704DIO     F539390   8.509   2.230   2.551
  704DIO    C1639391   8.316   2.318   2.441
  704DIO    C1739392   8.240   2.344   2.319
  704DIO    C1839393   8.309   2.328   2.191
  704DIO    C1939394   8.441   2.267   2.185
  704DIO     F639395   8.503   2.269   2.065
  704DIO    C2039396   8.099   2.399   2.325
  704DIO     O339397   8.030   2.366   2.445
  704DIO    C2139398   7.986   2.231   2.449
  704DIO    C2239399   7.897   2.199   2.329
  704DIO    C2339400   7.978   2.233   2.204
  704DIO     O439401   8.022   2.368   2.208
  704DIO    C2439402   7.764   2.278   2.330
  704DIO    C2539403   7.674   2.256   2.451
  704DIO    C2639404   7.635   2.110   2.474
  704DIO     H139405   9.356   2.301   2.242
  704DIO     H239406   9.315   1.953   2.513
  704DIO     H339407   9.138   2.156   2.602
  704DIO     H439408   8.886   2.186   2.599
  704DIO     H539409   8.887   2.176   2.162
  704DIO     H639410   8.278   2.347   2.538
  704DIO     H739411   8.266   2.366   2.100
  704DIO     H839412   8.109   2.508   2.325
  704DIO     H939413   8.073   2.164   2.452
  704DIO    H1039414   7.933   2.215   2.544
  704DIO    H1139415   7.875   2.092   2.328
  704DIO    H1239416   7.917   2.220   2.114
  704DIO    H1339417   8.064   2.166   2.194
  704DIO    H1439418   7.784   2.385   2.322
  704DIO    H1539419   7.708   2.250   2.240
  704DIO    H1639420   7.721   2.295   2.542
  704DIO    H1739421   7.582   2.314   2.437
  704DIO    H1839422   7.591   2.067   2.384
  704DIO    H1939423   7.722   2.050   2.503
  704DIO    H2039424   7.562   2.103   2.554
  705DIO     F139425   6.925   8.364   1.200
  705DIO     C139426   6.847   8.263   1.158
  705DIO     C239427   6.703   8.273   1.172
  705DIO     C339428   6.615   8.163   1.129
  705DIO     C439429   6.680   8.044   1.069
  705DIO     C539430   6.824   8.036   1.057
  705DIO     F239431   6.880   7.928   0.999
  705DIO     C639432   6.908   8.145   1.101
  705DIO     F339433   7.042   8.136   1.089
  705DIO     C739434   6.468   8.171   1.143
  705DIO     C839435   6.391   8.061   1.206
  705DIO     C939436   6.246   8.069   1.219
  705DIO    C1039437   6.174   8.180   1.161
  705DIO    C1139438   6.246   8.293   1.105
  705DIO    C1239439   6.390   8.286   1.094
  705DIO     F439440   6.455   8.390   1.036
  705DIO     O139441   6.042   8.193   1.198
  705DIO    C1339442   5.947   8.243   1.109
  705DIO     O239443   5.946   8.255   0.983
  705DIO    C1439444   5.818   8.270   1.173
  705DIO    C1539445   5.752   8.171   1.260
  705DIO     F539446   5.814   8.056   1.291
  705DIO    C1639447   5.621   8.194   1.319
  705DIO    C1739448   5.545   8.314   1.287
  705DIO    C1839449   5.614   8.421   1.215
  705DIO    C1939450   5.745   8.398   1.158
  705DIO     F639451   5.808   8.506   1.105
  705DIO    C2039452   5.404   8.334   1.338
  705DIO     O339453   5.335   8.212   1.364
  705DIO    C2139454   5.291   8.147   1.245
  705DIO    C2239455   5.202   8.239   1.163
  705DIO    C2339456   5.283   8.366   1.136
  705DIO     O439457   5.327   8.424   1.259
  705DIO    C2439458   5.069   8.275   1.233
  705DIO    C2539459   4.979   8.156   1.269
  705DIO    C2639460   4.940   8.070   1.149
  705DIO     H139461   6.661   8.363   1.214
  705DIO     H239462   6.619   7.964   1.027
  705DIO     H339463   6.443   7.976   1.248
  705DIO     H439464   6.191   7.993   1.273
  705DIO     H539465   6.192   8.378   1.066
  705DIO     H639466   5.583   8.121   1.390
  705DIO     H739467   5.571   8.520   1.208
  705DIO     H839468   5.414   8.383   1.436
  705DIO     H939469   5.378   8.114   1.187
  705DIO    H1039470   5.238   8.056   1.274
  705DIO    H1139471   5.180   8.191   1.067
  705DIO    H1239472   5.222   8.440   1.084
  705DIO    H1339473   5.369   8.345   1.072
  705DIO    H1439474   5.089   8.331   1.325
  705DIO    H1539475   5.013   8.342   1.168
  705DIO    H1639476   5.026   8.094   1.345
  705DIO    H1739477   4.887   8.196   1.314
  705DIO    H1839478   4.896   8.131   1.069
  705DIO    H1939479   5.027   8.017   1.109
  705DIO    H2039480   4.867   7.995   1.179
  706DIO     F139481  10.974   3.535   5.198
  706DIO     C139482  10.897   3.599   5.288
  706DIO     C239483  10.753   3.597   5.271
  706DIO     C339484  10.664   3.668   5.366
  706DIO     C439485  10.729   3.738   5.479
  706DIO     C539486  10.874   3.738   5.493
  706DIO     F239487  10.929   3.799   5.600
  706DIO     C639488  10.957   3.668   5.399
  706DIO     F339489  11.091   3.670   5.413
  706DIO     C739490  10.517   3.669   5.350
  706DIO     C839491  10.440   3.795   5.353
  706DIO     C939492  10.296   3.796   5.338
  706DIO    C1039493  10.223   3.670   5.329
  706DIO    C1139494  10.296   3.545   5.317
  706DIO    C1239495  10.440   3.545   5.330
  706DIO     F439496  10.505   3.427   5.324
  706DIO     O139497  10.091   3.679   5.291
  706DIO    C1339498   9.996   3.590   5.340
  706DIO     O239499   9.995   3.513   5.440
  706DIO    C1439500   9.867   3.600   5.271
  706DIO    C1539501   9.801   3.731   5.249
  706DIO     F539502   9.864   3.845   5.284
  706DIO    C1639503   9.670   3.743   5.188
  706DIO    C1739504   9.594   3.623   5.151
  706DIO    C1839505   9.663   3.495   5.156
  706DIO    C1939506   9.795   3.483   5.216
  706DIO     F639507   9.857   3.364   5.204
  706DIO    C2039508   9.454   3.634   5.097
  706DIO     O339509   9.384   3.751   5.140
  706DIO    C2139510   9.340   3.743   5.275
  706DIO    C2239511   9.251   3.621   5.296
  706DIO    C2339512   9.332   3.499   5.252
  706DIO     O439513   9.376   3.515   5.117
  706DIO    C2439514   9.119   3.628   5.218
  706DIO    C2539515   9.028   3.747   5.250
  706DIO    C2639516   8.989   3.757   5.397
  706DIO     H139517  10.710   3.543   5.187
  706DIO     H239518  10.669   3.783   5.557
  706DIO     H339519  10.492   3.890   5.363
  706DIO     H439520  10.241   3.889   5.333
  706DIO     H539521  10.241   3.452   5.305
  706DIO     H639522   9.632   3.842   5.166
  706DIO     H739523   9.620   3.407   5.110
  706DIO     H839524   9.463   3.644   4.988
  706DIO     H939525   9.427   3.740   5.342
  706DIO    H1039526   9.287   3.836   5.298
  706DIO    H1139527   9.229   3.611   5.403
  706DIO    H1239528   9.271   3.409   5.256
  706DIO    H1339529   9.418   3.483   5.318
  706DIO    H1439530   9.138   3.629   5.110
  706DIO    H1539531   9.062   3.536   5.237
  706DIO    H1639532   9.075   3.841   5.218
  706DIO    H1739533   8.936   3.738   5.191
  706DIO    H1839534   8.946   3.664   5.433
  706DIO    H1939535   9.076   3.781   5.459
  706DIO    H2039536   8.916   3.837   5.411
  707DIO     F139537   1.150   8.285  -0.158
  707DIO     C139538   1.072   8.199  -0.089
  707DIO     C239539   0.928   8.216  -0.091
  707DIO     C339540   0.839   8.125  -0.015
  707DIO     C439541   0.905   8.015   0.060
  707DIO     C539542   1.049   8.001   0.061
  707DIO     F239543   1.104   7.898   0.128
  707DIO     C639544   1.133   8.092  -0.014
  707DIO     F339545   1.266   8.078  -0.011
  707DIO     C739546   0.693   8.141  -0.016
  707DIO     C839547   0.616   8.144   0.111
  707DIO     C939548   0.471   8.159   0.110
  707DIO    C1039549   0.398   8.161  -0.015
  707DIO    C1139550   0.471   8.166  -0.141
  707DIO    C1239551   0.615   8.154  -0.141
  707DIO     F439552   0.680   8.153  -0.259
  707DIO     O139553   0.266   8.200  -0.009
  707DIO    C1339554   0.172   8.146  -0.095
  707DIO     O239555   0.171   8.042  -0.167
  707DIO    C1439556   0.042   8.215  -0.088
  707DIO    C1539557  -0.024   8.244   0.041
  707DIO     F539558   0.039   8.216   0.157
  707DIO    C1639559  -0.155   8.306   0.049
  707DIO    C1739560  -0.230   8.337  -0.072
  707DIO    C1839561  -0.162   8.325  -0.200
  707DIO    C1939562  -0.030   8.264  -0.208
  707DIO     F639563   0.032   8.269  -0.328
  707DIO    C2039564  -0.371   8.391  -0.065
  707DIO     O339565  -0.441   8.355   0.055
  707DIO    C2139566  -0.485   8.219   0.055
  707DIO    C2239567  -0.573   8.191  -0.066
  707DIO    C2339568  -0.493   8.229  -0.190
  707DIO     O439569  -0.448   8.364  -0.182
  707DIO    C2439570  -0.706   8.270  -0.063
  707DIO    C2539571  -0.797   8.244   0.057
  707DIO    C2639572  -0.835   8.098   0.075
  707DIO     H139573   0.885   8.296  -0.150
  707DIO     H239574   0.844   7.940   0.110
  707DIO     H339575   0.667   8.140   0.206
  707DIO     H439576   0.416   8.170   0.203
  707DIO     H539577   0.416   8.174  -0.234
  707DIO     H639578  -0.193   8.333   0.147
  707DIO     H739579  -0.205   8.366  -0.290
  707DIO     H839580  -0.361   8.500  -0.060
  707DIO     H939581  -0.398   8.153   0.055
  707DIO    H1039582  -0.537   8.201   0.149
  707DIO    H1139583  -0.596   8.084  -0.070
  707DIO    H1239584  -0.554   8.219  -0.280
  707DIO    H1339585  -0.407   8.162  -0.203
  707DIO    H1439586  -0.686   8.378  -0.068
  707DIO    H1539587  -0.763   8.246  -0.154
  707DIO    H1639588  -0.750   8.281   0.149
  707DIO    H1739589  -0.889   8.303   0.045
  707DIO    H1839590  -0.879   8.057  -0.016
  707DIO    H1939591  -0.749   8.037   0.103
  707DIO    H2039592  -0.909   8.089   0.156
  708DIO     F139593   3.051   9.324   1.948
  708DIO     C139594   2.974   9.216   1.932
  708DIO     C239595   2.830   9.229   1.943
  708DIO     C339596   2.741   9.111   1.929
  708DIO     C439597   2.806   8.981   1.901
  708DIO     C539598   2.951   8.971   1.891
  708DIO     F239599   3.006   8.851   1.862
  708DIO     C639600   3.034   9.087   1.906
  708DIO     F339601   3.168   9.076   1.897
  708DIO     C739602   2.594   9.122   1.940
  708DIO     C839603   2.517   9.032   2.029
  708DIO     C939604   2.373   9.043   2.040
  708DIO    C1039605   2.300   9.136   1.956
  708DIO    C1139606   2.373   9.231   1.873
  708DIO    C1239607   2.517   9.222   1.864
  708DIO     F439608   2.582   9.308   1.783
  708DIO     O139609   2.168   9.158   1.988
  708DIO    C1339610   2.073   9.184   1.889
  708DIO     O239611   2.072   9.165   1.765
  708DIO    C1439612   1.944   9.226   1.944
  708DIO    C1539613   1.878   9.152   2.054
  708DIO     F539614   1.941   9.048   2.113
  708DIO    C1639615   1.747   9.189   2.105
  708DIO    C1739616   1.671   9.297   2.044
  708DIO    C1839617   1.740   9.382   1.948
  708DIO    C1939618   1.872   9.347   1.898
  708DIO     F639619   1.934   9.437   1.820
  708DIO    C2039620   1.531   9.329   2.089
  708DIO     O339621   1.461   9.218   2.145
  708DIO    C2139622   1.417   9.125   2.046
  708DIO    C2239623   1.328   9.194   1.942
  708DIO    C2339624   1.409   9.310   1.885
  708DIO     O439625   1.453   9.397   1.989
  708DIO    C2439626   1.196   9.246   2.002
  708DIO    C2539627   1.105   9.140   2.066
  708DIO    C2639628   1.066   9.027   1.972
  708DIO     H139629   2.787   9.327   1.961
  708DIO     H239630   2.746   8.894   1.880
  708DIO     H339631   2.569   8.961   2.091
  708DIO     H439632   2.318   8.983   2.111
  708DIO     H539633   2.318   9.304   1.814
  708DIO     H639634   1.709   9.136   2.192
  708DIO     H739635   1.697   9.477   1.916
  708DIO     H839636   1.540   9.401   2.171
  708DIO     H939637   1.504   9.079   1.997
  708DIO    H1039638   1.364   9.044   2.097
  708DIO    H1139639   1.306   9.123   1.861
  708DIO    H1239640   1.348   9.369   1.816
  708DIO    H1339641   1.495   9.273   1.828
  708DIO    H1439642   1.215   9.323   2.077
  708DIO    H1539643   1.139   9.295   1.922
  708DIO    H1639644   1.152   9.099   2.155
  708DIO    H1739645   1.013   9.190   2.100
  708DIO    H1839646   1.023   9.065   1.879
  708DIO    H1939647   1.153   8.965   1.946
  708DIO    H2039648   0.993   8.962   2.020
  709DIO     F139649   9.303   6.381   9.246
  709DIO     C139650   9.225   6.483   9.287
  709DIO     C239651   9.081   6.473   9.274
  709DIO     C339652   8.992   6.584   9.316
  709DIO     C439653   9.058   6.703   9.373
  709DIO     C539654   9.202   6.711   9.386
  709DIO     F239655   9.257   6.820   9.443
  709DIO     C639656   9.286   6.602   9.343
  709DIO     F339657   9.420   6.611   9.355
  709DIO     C739658   8.846   6.576   9.302
  709DIO     C839659   8.769   6.684   9.237
  709DIO     C939660   8.624   6.676   9.224
  709DIO    C1039661   8.551   6.566   9.283
  709DIO    C1139662   8.624   6.454   9.341
  709DIO    C1239663   8.768   6.461   9.352
  709DIO     F439664   8.833   6.358   9.411
  709DIO     O139665   8.419   6.553   9.247
  709DIO    C1339666   8.325   6.504   9.337
  709DIO     O239667   8.324   6.493   9.462
  709DIO    C1439668   8.196   6.476   9.273
  709DIO    C1539669   8.129   6.574   9.184
  709DIO     F539670   8.192   6.689   9.152
  709DIO    C1639671   7.999   6.551   9.126
  709DIO    C1739672   7.923   6.430   9.159
  709DIO    C1839673   7.992   6.325   9.232
  709DIO    C1939674   8.123   6.348   9.289
  709DIO     F639675   8.186   6.241   9.343
  709DIO    C2039676   7.782   6.410   9.108
  709DIO     O339677   7.712   6.532   9.080
  709DIO    C2139678   7.669   6.598   9.199
  709DIO    C2239679   7.580   6.507   9.283
  709DIO    C2339680   7.661   6.380   9.310
  709DIO     O439681   7.705   6.321   9.189
  709DIO    C2439682   7.447   6.471   9.213
  709DIO    C2539683   7.356   6.588   9.176
  709DIO    C2639684   7.318   6.676   9.294
  709DIO     H139685   9.038   6.382   9.232
  709DIO     H239686   8.997   6.783   9.415
  709DIO     H339687   8.820   6.769   9.194
  709DIO     H439688   8.569   6.752   9.169
  709DIO     H539689   8.570   6.369   9.380
  709DIO     H639690   7.960   6.623   9.054
  709DIO     H739691   7.949   6.226   9.241
  709DIO     H839692   7.792   6.360   9.011
  709DIO     H939693   7.755   6.631   9.257
  709DIO    H1039694   7.616   6.689   9.169
  709DIO    H1139695   7.557   6.556   9.378
  709DIO    H1239696   7.599   6.306   9.363
  709DIO    H1339697   7.747   6.402   9.375
  709DIO    H1439698   7.467   6.413   9.121
  709DIO    H1539699   7.391   6.403   9.279
  709DIO    H1639700   7.404   6.650   9.098
  709DIO    H1739701   7.265   6.548   9.131
  709DIO    H1839702   7.274   6.616   9.375
  709DIO    H1939703   7.404   6.730   9.334
  709DIO    H2039704   7.244   6.751   9.263
  710DIO     F139705   8.469   6.248   7.691
  710DIO     C139706   8.392   6.149   7.739
  710DIO     C239707   8.247   6.166   7.741
  710DIO     C339708   8.159   6.060   7.795
  710DIO     C439709   8.224   5.937   7.845
  710DIO     C539710   8.368   5.923   7.842
  710DIO     F239711   8.424   5.807   7.885
  710DIO     C639712   8.452   6.028   7.789
  710DIO     F339713   8.586   6.013   7.789
  710DIO     C739714   8.012   6.076   7.798
  710DIO     C839715   7.935   6.051   7.922
  710DIO     C939716   7.790   6.066   7.925
  710DIO    C1039717   7.718   6.096   7.803
  710DIO    C1139718   7.790   6.128   7.681
  710DIO    C1239719   7.934   6.116   7.679
  710DIO     F439720   7.999   6.141   7.564
  710DIO     O139721   7.586   6.132   7.818
  710DIO    C1339722   7.491   6.098   7.722
  710DIO     O239723   7.490   6.013   7.629
  710DIO    C1439724   7.362   6.164   7.743
  710DIO    C1539725   7.296   6.164   7.876
  710DIO     F539726   7.358   6.111   7.983
  710DIO    C1639727   7.165   6.223   7.898
  710DIO    C1739728   7.089   6.279   7.786
  710DIO    C1839729   7.158   6.296   7.659
  710DIO    C1939730   7.290   6.238   7.638
  710DIO     F639731   7.352   6.270   7.522
  710DIO    C2039732   6.948   6.331   7.805
  710DIO     O339733   6.879   6.269   7.914
  710DIO    C2139734   6.835   6.137   7.884
  710DIO    C2239735   6.746   6.136   7.760
  710DIO    C2339736   6.827   6.201   7.647
  710DIO     O439737   6.871   6.331   7.685
  710DIO    C2439738   6.613   6.213   7.780
  710DIO    C2539739   6.523   6.161   7.892
  710DIO    C2639740   6.484   6.014   7.878
  710DIO     H139741   8.205   6.257   7.701
  710DIO     H239742   8.164   5.853   7.876
  710DIO     H339743   7.987   6.026   8.014
  710DIO     H439744   7.735   6.056   8.018
  710DIO     H539745   7.736   6.156   7.592
  710DIO     H639746   7.127   6.228   7.999
  710DIO     H739747   7.115   6.356   7.580
  710DIO     H839748   6.958   6.436   7.834
  710DIO     H939749   6.922   6.072   7.870
  710DIO    H1039750   6.782   6.098   7.972
  710DIO    H1139751   6.724   6.033   7.732
  710DIO    H1239752   6.766   6.211   7.557
  710DIO    H1339753   6.913   6.138   7.620
  710DIO    H1439754   6.633   6.319   7.799
  710DIO    H1539755   6.557   6.209   7.686
  710DIO    H1639756   6.570   6.177   7.990
  710DIO    H1739757   6.431   6.221   7.893
  710DIO    H1839758   6.440   5.995   7.779
  710DIO    H1939759   6.571   5.949   7.891
  710DIO    H2039760   6.411   5.987   7.954
  711DIO     F139761   2.444   3.129   9.016
  711DIO     C139762   2.367   3.019   9.007
  711DIO     C239763   2.223   3.033   9.016
  711DIO     C339764   2.134   2.915   9.008
  711DIO     C439765   2.199   2.784   8.987
  711DIO     C539766   2.344   2.773   8.978
  711DIO     F239767   2.399   2.652   8.955
  711DIO     C639768   2.427   2.890   8.987
  711DIO     F339769   2.561   2.878   8.979
  711DIO     C739770   1.987   2.927   9.019
  711DIO     C839771   1.910   2.841   9.112
  711DIO     C939772   1.766   2.853   9.123
  711DIO    C1039773   1.693   2.941   9.034
  711DIO    C1139774   1.765   3.032   8.947
  711DIO    C1239775   1.910   3.023   8.938
  711DIO     F439776   1.974   3.104   8.852
  711DIO     O139777   1.561   2.965   9.065
  711DIO    C1339778   1.466   2.985   8.965
  711DIO     O239779   1.465   2.960   8.842
  711DIO    C1439780   1.337   3.031   9.018
  711DIO    C1539781   1.271   2.962   9.131
  711DIO     F539782   1.333   2.861   9.196
  711DIO    C1639783   1.140   3.001   9.181
  711DIO    C1739784   1.064   3.107   9.114
  711DIO    C1839785   1.133   3.187   9.014
  711DIO    C1939786   1.265   3.149   8.966
  711DIO     F639787   1.327   3.235   8.883
  711DIO    C2039788   0.924   3.141   9.157
  711DIO     O339789   0.854   3.032   9.219
  711DIO    C2139790   0.810   2.935   9.125
  711DIO    C2239791   0.721   2.998   9.018
  711DIO    C2339792   0.802   3.111   8.955
  711DIO     O439793   0.846   3.203   9.054
  711DIO    C2439794   0.588   3.053   9.074
  711DIO    C2539795   0.498   2.951   9.144
  711DIO    C2639796   0.459   2.833   9.056
  711DIO     H139797   2.180   3.132   9.030
  711DIO     H239798   2.139   2.695   8.971
  711DIO     H339799   1.962   2.773   9.178
  711DIO     H439800   1.710   2.796   9.197
  711DIO     H539801   1.711   3.102   8.884
  711DIO     H639802   1.102   2.953   9.270
  711DIO     H739803   1.090   3.279   8.977
  711DIO     H839804   0.933   3.217   9.236
  711DIO     H939805   0.897   2.886   9.079
  711DIO    H1039806   0.757   2.856   9.179
  711DIO    H1139807   0.699   2.924   8.941
  711DIO    H1239808   0.741   3.167   8.883
  711DIO    H1339809   0.888   3.072   8.899
  711DIO    H1439810   0.608   3.134   9.146
  711DIO    H1539811   0.532   3.098   8.992
  711DIO    H1639812   0.545   2.914   9.235
  711DIO    H1739813   0.406   3.002   9.175
  711DIO    H1839814   0.415   2.867   8.961
  711DIO    H1939815   0.546   2.770   9.033
  711DIO    H2039816   0.386   2.770   9.107
  712DIO     F139817   9.265   5.134   3.469
  712DIO     C139818   9.188   5.211   3.391
  712DIO     C239819   9.043   5.195   3.395
  712DIO     C339820   8.955   5.276   3.309
  712DIO     C439821   9.020   5.376   3.221
  712DIO     C539822   9.164   5.390   3.219
  712DIO     F239823   9.220   5.485   3.140
  712DIO     C639824   9.248   5.309   3.303
  712DIO     F339825   9.382   5.322   3.299
  712DIO     C739826   8.808   5.260   3.311
  712DIO     C839827   8.731   5.242   3.186
  712DIO     C939828   8.586   5.227   3.188
  712DIO    C1039829   8.514   5.240   3.313
  712DIO    C1139830   8.586   5.249   3.439
  712DIO    C1239831   8.730   5.262   3.437
  712DIO     F439832   8.795   5.276   3.554
  712DIO     O139833   8.382   5.200   3.311
  712DIO    C1339834   8.287   5.265   3.391
  712DIO     O239835   8.286   5.376   3.450
  712DIO    C1439836   8.158   5.195   3.392
  712DIO    C1539837   8.092   5.151   3.267
  712DIO     F539838   8.154   5.166   3.149
  712DIO    C1639839   7.961   5.088   3.266
  712DIO    C1739840   7.885   5.072   3.390
  712DIO    C1839841   7.954   5.099   3.516
  712DIO    C1939842   8.086   5.161   3.517
  712DIO     F639843   8.148   5.169   3.636
  712DIO    C2039844   7.744   5.017   3.389
  712DIO     O339845   7.675   5.039   3.266
  712DIO    C2139846   7.631   5.174   3.251
  712DIO    C2239847   7.542   5.216   3.367
  712DIO    C2339848   7.623   5.193   3.495
  712DIO     O439849   7.667   5.058   3.503
  712DIO    C2439850   7.409   5.137   3.374
  712DIO    C2539851   7.319   5.149   3.251
  712DIO    C2639852   7.280   5.292   3.216
  712DIO     H139853   9.001   5.122   3.463
  712DIO     H239854   8.960   5.445   3.163
  712DIO     H339855   8.783   5.235   3.091
  712DIO     H439856   8.531   5.206   3.098
  712DIO     H539857   8.532   5.253   3.532
  712DIO     H639858   7.923   5.050   3.172
  712DIO     H739859   7.911   5.069   3.610
  712DIO     H839860   7.754   4.909   3.398
  712DIO     H939861   7.718   5.240   3.242
  712DIO    H1039862   7.578   5.181   3.155
  712DIO    H1139863   7.520   5.323   3.359
  712DIO    H1239864   7.562   5.213   3.583
  712DIO    H1339865   7.709   5.261   3.499
  712DIO    H1439866   7.429   5.031   3.391
  712DIO    H1539867   7.353   5.172   3.461
  712DIO    H1639868   7.366   5.101   3.164
  712DIO    H1739869   7.227   5.092   3.270
  712DIO    H1839870   7.236   5.343   3.302
  712DIO    H1939871   7.367   5.349   3.181
  712DIO    H2039872   7.207   5.292   3.135
  713DIO     F139873  10.878   8.431  10.046
  713DIO     C139874  10.801   8.409  10.153
  713DIO     C239875  10.656   8.420  10.141
  713DIO     C339876  10.568   8.399  10.257
  713DIO     C439877  10.633   8.363  10.385
  713DIO     C539878  10.777   8.352  10.395
  713DIO     F239879  10.833   8.315  10.512
  713DIO     C639880  10.861   8.374  10.280
  713DIO     F339881  10.995   8.365  10.290
  713DIO     C739882  10.421   8.411  10.247
  713DIO     C839883  10.344   8.494  10.342
  713DIO     C939884  10.199   8.505  10.332
  713DIO    C1039885  10.127   8.427  10.234
  713DIO    C1139886  10.199   8.351  10.134
  713DIO    C1239887  10.343   8.341  10.142
  713DIO     F439888  10.408   8.266  10.051
  713DIO     O139889   9.995   8.461  10.215
  713DIO    C1339890   9.900   8.364  10.182
  713DIO     O239891   9.899   8.239  10.193
  713DIO    C1439892   9.771   8.422  10.143
  713DIO    C1539893   9.705   8.526  10.224
  713DIO     F539894   9.767   8.578  10.332
  713DIO    C1639895   9.574   8.580  10.191
  713DIO    C1739896   9.498   8.526  10.079
  713DIO    C1839897   9.567   8.435   9.988
  713DIO    C1939898   9.699   8.383  10.020
  713DIO     F639899   9.761   8.311   9.924
  713DIO    C2039900   9.357   8.573  10.050
  713DIO     O339901   9.288   8.621  10.165
  713DIO    C2139902   9.244   8.516  10.251
  713DIO    C2239903   9.155   8.418  10.176
  713DIO    C2339904   9.236   8.368  10.056
  713DIO     O439905   9.280   8.477   9.976
  713DIO    C2439906   9.022   8.480  10.128
  713DIO    C2539907   8.932   8.537  10.237
  713DIO    C2639908   8.893   8.436  10.344
  713DIO     H139909  10.614   8.445  10.044
  713DIO     H239910  10.573   8.336  10.471
  713DIO     H339911  10.396   8.551  10.418
  713DIO     H439912  10.144   8.572  10.397
  713DIO     H539913  10.145   8.297  10.057
  713DIO     H639914   9.536   8.663  10.250
  713DIO     H739915   9.524   8.410   9.892
  713DIO     H839916   9.367   8.660   9.984
  713DIO     H939917   9.331   8.465  10.294
  713DIO    H1039918   9.191   8.562  10.335
  713DIO    H1139919   9.133   8.332  10.241
  713DIO    H1239920   9.175   8.303   9.993
  713DIO    H1339921   9.322   8.309  10.089
  713DIO    H1439922   9.042   8.560  10.055
  713DIO    H1539923   8.966   8.404  10.073
  713DIO    H1639924   8.979   8.624  10.285
  713DIO    H1739925   8.840   8.575  10.190
  713DIO    H1839926   8.849   8.346  10.300
  713DIO    H1939927   8.980   8.406  10.404
  713DIO    H2039928   8.820   8.480  10.412
  714DIO     F139929  10.781   4.717   9.507
  714DIO     C139930  10.704   4.790   9.426
  714DIO     C239931  10.560   4.774   9.431
  714DIO     C339932  10.471   4.851   9.341
  714DIO     C439933  10.536   4.946   9.248
  714DIO     C539934  10.681   4.961   9.245
  714DIO     F239935  10.736   5.051   9.162
  714DIO     C639936  10.764   4.883   9.334
  714DIO     F339937  10.898   4.897   9.329
  714DIO     C739938  10.325   4.835   9.344
  714DIO     C839939  10.247   4.812   9.220
  714DIO     C939940  10.103   4.797   9.222
  714DIO    C1039941  10.030   4.815   9.347
  714DIO    C1139942  10.103   4.831   9.471
  714DIO    C1239943  10.247   4.843   9.469
  714DIO     F439944  10.312   4.863   9.585
  714DIO     O139945   9.898   4.776   9.346
  714DIO    C1339946   9.803   4.844   9.423
  714DIO     O239947   9.803   4.958   9.476
  714DIO    C1439948   9.674   4.774   9.428
  714DIO    C1539949   9.608   4.724   9.305
  714DIO     F539950   9.671   4.733   9.186
  714DIO    C1639951   9.477   4.661   9.307
  714DIO    C1739952   9.401   4.651   9.431
  714DIO    C1839953   9.470   4.684   9.556
  714DIO    C1939954   9.602   4.746   9.554
  714DIO     F639955   9.664   4.760   9.672
  714DIO    C2039956   9.261   4.597   9.433
  714DIO     O339957   9.191   4.612   9.309
  714DIO    C2139958   9.147   4.746   9.287
  714DIO    C2239959   9.058   4.794   9.402
  714DIO    C2339960   9.139   4.777   9.530
  714DIO     O439961   9.183   4.642   9.545
  714DIO    C2439962   8.926   4.716   9.412
  714DIO    C2539963   8.835   4.721   9.288
  714DIO    C2639964   8.797   4.862   9.247
  714DIO     H139965  10.517   4.704   9.502
  714DIO     H239966  10.476   5.013   9.187
  714DIO     H339967  10.299   4.800   9.125
  714DIO     H439968  10.048   4.771   9.133
  714DIO     H539969  10.048   4.839   9.565
  714DIO     H639970   9.439   4.619   9.215
  714DIO     H739971   9.427   4.658   9.652
  714DIO     H839972   9.270   4.488   9.447
  714DIO     H939973   9.234   4.812   9.276
  714DIO    H1039974   9.095   4.749   9.192
  714DIO    H1139975   9.036   4.900   9.388
  714DIO    H1239976   9.078   4.801   9.618
  714DIO    H1339977   9.225   4.845   9.532
  714DIO    H1439978   8.946   4.610   9.434
  714DIO    H1539979   8.869   4.755   9.498
  714DIO    H1639980   8.882   4.670   9.204
  714DIO    H1739981   8.743   4.665   9.311
  714DIO    H1839982   8.753   4.918   9.330
  714DIO    H1939983   8.883   4.918   9.210
  714DIO    H2039984   8.723   4.859   9.166
  715DIO     F139985   8.541   9.401   9.042
  715DIO     C139986   8.463   9.386   9.151
  715DIO     C239987   8.319   9.396   9.138
  715DIO     C339988   8.230   9.382   9.255
  715DIO     C439989   8.296   9.354   9.385
  715DIO     C539990   8.440   9.344   9.396
  715DIO     F239991   8.496   9.314   9.515
  715DIO     C639992   8.524   9.359   9.279
  715DIO     F339993   8.658   9.350   9.291
  715DIO     C739994   8.084   9.393   9.244
  715DIO     C839995   8.007   9.482   9.334
  715DIO     C939996   7.862   9.493   9.324
  715DIO    C1039997   7.790   9.409   9.230
  715DIO    C1139998   7.862   9.326   9.135
  715DIO    C1239999   8.006   9.317   9.144
  715DIO     F440000   8.071   9.236   9.058
  715DIO     O140001   7.657   9.441   9.209
  715DIO    C1340002   7.563   9.343   9.183
  715DIO     O240003   7.562   9.218   9.201
  715DIO    C1440004   7.434   9.398   9.140
  715DIO    C1540005   7.367   9.507   9.215
  715DIO     F540006   7.430   9.566   9.319
  715DIO    C1640007   7.237   9.559   9.178
  715DIO    C1740008   7.161   9.498   9.069
  715DIO    C1840009   7.230   9.402   8.984
  715DIO    C1940010   7.361   9.352   9.020
  715DIO     F640011   7.424   9.274   8.929
  715DIO    C2040012   7.020   9.542   9.037
  715DIO     O340013   6.950   9.598   9.150
  715DIO    C2140014   6.907   9.499   9.242
  715DIO    C2240015   6.818   9.396   9.173
  715DIO    C2340016   6.899   9.339   9.056
  715DIO     O440017   6.943   9.443   8.970
  715DIO    C2440018   6.685   9.455   9.121
  715DIO    C2540019   6.594   9.519   9.227
  715DIO    C2640020   6.556   9.425   9.340
  715DIO     H140021   8.277   9.415   9.040
  715DIO     H240022   8.235   9.332   9.473
  715DIO     H340023   8.058   9.544   9.406
  715DIO     H440024   7.807   9.564   9.384
  715DIO     H540025   7.808   9.268   9.062
  715DIO     H640026   7.199   9.645   9.231
  715DIO     H740027   7.187   9.370   8.890
  715DIO     H840028   7.030   9.625   8.966
  715DIO     H940029   6.993   9.450   9.288
  715DIO    H1040030   6.854   9.549   9.323
  715DIO    H1140031   6.795   9.315   9.243
  715DIO    H1240032   6.838   9.270   8.997
  715DIO    H1340033   6.985   9.281   9.093
  715DIO    H1440034   6.705   9.531   9.044
  715DIO    H1540035   6.629   9.375   9.071
  715DIO    H1640036   6.642   9.608   9.269
  715DIO    H1740037   6.503   9.553   9.177
  715DIO    H1840038   6.512   9.332   9.301
  715DIO    H1940039   6.643   9.399   9.402
  715DIO    H2040040   6.482   9.472   9.405
  716DIO     F140041   5.304   1.671   5.899
  716DIO     C140042   5.226   1.599   5.816
  716DIO     C240043   5.082   1.602   5.832
  716DIO     C340044   4.993   1.523   5.744
  716DIO     C440045   5.059   1.443   5.638
  716DIO     C540046   5.203   1.442   5.623
  716DIO     F240047   5.259   1.372   5.523
  716DIO     C640048   5.287   1.520   5.711
  716DIO     F340049   5.421   1.517   5.697
  716DIO     C740050   4.847   1.524   5.760
  716DIO     C840051   4.770   1.398   5.768
  716DIO     C940052   4.625   1.398   5.783
  716DIO    C1040053   4.553   1.524   5.781
  716DIO    C1140054   4.625   1.650   5.781
  716DIO    C1240055   4.769   1.649   5.769
  716DIO     F440056   4.834   1.767   5.764
  716DIO     O140057   4.420   1.519   5.820
  716DIO    C1340058   4.326   1.603   5.762
  716DIO     O240059   4.325   1.671   5.656
  716DIO    C1440060   4.197   1.599   5.832
  716DIO    C1540061   4.130   1.471   5.866
  716DIO     F540062   4.193   1.354   5.842
  716DIO    C1640063   4.000   1.465   5.928
  716DIO    C1740064   3.924   1.587   5.954
  716DIO    C1840065   3.993   1.715   5.937
  716DIO    C1940066   4.124   1.720   5.876
  716DIO     F640067   4.187   1.840   5.877
  716DIO    C2040068   3.783   1.582   6.009
  716DIO     O340069   3.713   1.461   5.977
  716DIO    C2140070   3.670   1.456   5.842
  716DIO    C2240071   3.581   1.576   5.809
  716DIO    C2340072   3.662   1.701   5.842
  716DIO     O440073   3.706   1.698   5.978
  716DIO    C2440074   3.448   1.576   5.888
  716DIO    C2540075   3.357   1.454   5.866
  716DIO    C2640076   3.319   1.431   5.721
  716DIO     H140077   5.040   1.664   5.911
  716DIO     H240078   4.998   1.391   5.564
  716DIO     H340079   4.821   1.303   5.767
  716DIO     H440080   4.570   1.307   5.797
  716DIO     H540081   4.571   1.743   5.785
  716DIO     H640082   3.962   1.368   5.958
  716DIO     H740083   3.950   1.806   5.975
  716DIO     H840084   3.793   1.581   6.118
  716DIO     H940085   3.756   1.454   5.775
  716DIO    H1040086   3.617   1.362   5.826
  716DIO    H1140087   3.558   1.576   5.702
  716DIO    H1240088   3.601   1.791   5.829
  716DIO    H1340089   3.748   1.711   5.775
  716DIO    H1440090   3.468   1.585   5.995
  716DIO    H1540091   3.392   1.666   5.860
  716DIO    H1640092   3.405   1.364   5.907
  716DIO    H1740093   3.266   1.469   5.925
  716DIO    H1840094   3.275   1.521   5.677
  716DIO    H1940095   3.406   1.402   5.661
  716DIO    H2040096   3.245   1.351   5.714
  717DIO     F140097   5.249   4.803   9.042
  717DIO     C140098   5.171   4.720   8.970
  717DIO     C240099   5.027   4.725   8.986
  717DIO     C340100   4.938   4.634   8.910
  717DIO     C440101   5.004   4.539   8.817
  717DIO     C540102   5.148   4.536   8.803
  717DIO     F240103   5.203   4.451   8.714
  717DIO     C640104   5.232   4.626   8.878
  717DIO     F340105   5.366   4.621   8.865
  717DIO     C740106   4.792   4.637   8.926
  717DIO     C840107   4.715   4.514   8.952
  717DIO     C940108   4.570   4.517   8.967
  717DIO    C1040109   4.497   4.640   8.947
  717DIO    C1140110   4.570   4.765   8.928
  717DIO    C1240111   4.714   4.762   8.916
  717DIO     F440112   4.779   4.878   8.894
  717DIO     O140113   4.365   4.641   8.986
  717DIO    C1340114   4.271   4.716   8.916
  717DIO     O240115   4.270   4.767   8.801
  717DIO    C1440116   4.142   4.722   8.986
  717DIO    C1540117   4.075   4.601   9.038
  717DIO     F540118   4.138   4.481   9.032
  717DIO    C1640119   3.945   4.604   9.101
  717DIO    C1740120   3.869   4.728   9.108
  717DIO    C1840121   3.938   4.852   9.073
  717DIO    C1940122   4.069   4.849   9.012
  717DIO     F640123   4.132   4.967   8.995
  717DIO    C2040124   3.728   4.731   9.163
  717DIO     O340125   3.658   4.607   9.150
  717DIO    C2140126   3.615   4.582   9.016
  717DIO    C2240127   3.526   4.696   8.967
  717DIO    C2340128   3.607   4.825   8.981
  717DIO     O440129   3.651   4.842   9.115
  717DIO    C2440130   3.393   4.708   9.045
  717DIO    C2540131   3.302   4.584   9.041
  717DIO    C2640132   3.264   4.540   8.901
  717DIO     H140133   4.984   4.798   9.054
  717DIO     H240134   4.943   4.477   8.752
  717DIO     H340135   4.766   4.419   8.966
  717DIO     H440136   4.515   4.428   8.995
  717DIO     H540137   4.516   4.858   8.919
  717DIO     H640138   3.906   4.513   9.145
  717DIO     H740139   3.895   4.948   9.097
  717DIO     H840140   3.738   4.747   9.271
  717DIO     H940141   3.701   4.570   8.951
  717DIO    H1040142   3.562   4.487   9.016
  717DIO    H1140143   3.503   4.680   8.860
  717DIO    H1240144   3.545   4.912   8.955
  717DIO    H1340145   3.693   4.825   8.913
  717DIO    H1440146   3.413   4.732   9.150
  717DIO    H1540147   3.337   4.793   9.004
  717DIO    H1640148   3.350   4.501   9.095
  717DIO    H1740149   3.211   4.608   9.097
  717DIO    H1840150   3.220   4.622   8.844
  717DIO    H1940151   3.350   4.502   8.846
  717DIO    H2040152   3.190   4.459   8.906
  718DIO     F140153   7.250   4.668   0.587
  718DIO     C140154   7.173   4.701   0.483
  718DIO     C240155   7.029   4.688   0.494
  718DIO     C340156   6.940   4.722   0.380
  718DIO     C440157   7.005   4.771   0.257
  718DIO     C540158   7.150   4.783   0.248
  718DIO     F240159   7.205   4.832   0.136
  718DIO     C640160   7.233   4.749   0.361
  718DIO     F340161   7.367   4.759   0.351
  718DIO     C740162   6.793   4.709   0.389
  718DIO     C840163   6.716   4.636   0.286
  718DIO     C940164   6.572   4.624   0.295
  718DIO    C1040165   6.499   4.691   0.401
  718DIO    C1140166   6.572   4.757   0.508
  718DIO    C1240167   6.716   4.767   0.501
  718DIO     F440168   6.781   4.833   0.599
  718DIO     O140169   6.367   4.655   0.416
  718DIO    C1340170   6.272   4.749   0.458
  718DIO     O240171   6.271   4.875   0.461
  718DIO    C1440172   6.143   4.687   0.491
  718DIO    C1540173   6.077   4.592   0.400
  718DIO     F540174   6.140   4.551   0.287
  718DIO    C1640175   5.946   4.535   0.427
  718DIO    C1740176   5.870   4.577   0.545
  718DIO    C1840177   5.939   4.658   0.645
  718DIO    C1940178   6.071   4.713   0.618
  718DIO     F640179   6.133   4.775   0.720
  718DIO    C2040180   5.730   4.528   0.569
  718DIO     O340181   5.660   4.491   0.449
  718DIO    C2140182   5.616   4.604   0.374
  718DIO    C2240183   5.527   4.695   0.459
  718DIO    C2340184   5.608   4.732   0.584
  718DIO     O440185   5.652   4.615   0.652
  718DIO    C2440186   5.395   4.627   0.501
  718DIO    C2540187   5.304   4.582   0.386
  718DIO    C2640188   5.265   4.694   0.290
  718DIO     H140189   6.986   4.654   0.587
  718DIO     H240190   6.945   4.807   0.174
  718DIO     H340191   6.768   4.587   0.205
  718DIO     H440192   6.517   4.564   0.223
  718DIO     H540193   6.517   4.802   0.590
  718DIO     H640194   5.908   4.459   0.360
  718DIO     H740195   5.896   4.673   0.743
  718DIO     H840196   5.739   4.434   0.626
  718DIO     H940197   5.703   4.660   0.337
  718DIO    H1040198   5.563   4.568   0.286
  718DIO    H1140199   5.505   4.786   0.404
  718DIO    H1240200   5.547   4.790   0.653
  718DIO    H1340201   5.694   4.794   0.557
  718DIO    H1440202   5.414   4.540   0.564
  718DIO    H1540203   5.338   4.698   0.563
  718DIO    H1640204   5.351   4.501   0.330
  718DIO    H1740205   5.212   4.540   0.429
  718DIO    H1840206   5.222   4.779   0.344
  718DIO    H1940207   5.352   4.730   0.233
  718DIO    H2040208   5.192   4.657   0.218
  719DIO     F140209   9.998  -0.557   5.971
  719DIO     C140210   9.920  -0.464   6.030
  719DIO     C240211   9.776  -0.471   6.014
  719DIO     C340212   9.687  -0.370   6.075
  719DIO     C440213   9.753  -0.262   6.154
  719DIO     C540214   9.897  -0.257   6.167
  719DIO     F240215   9.952  -0.160   6.243
  719DIO     C640216   9.981  -0.357   6.106
  719DIO     F340217  10.114  -0.350   6.118
  719DIO     C740218   9.541  -0.375   6.060
  719DIO     C840219   9.464  -0.257   6.016
  719DIO     C940220   9.319  -0.262   6.002
  719DIO    C1040221   9.246  -0.382   6.041
  719DIO    C1140222   9.319  -0.502   6.077
  719DIO    C1240223   9.463  -0.498   6.089
  719DIO     F440224   9.528  -0.609   6.128
  719DIO     O140225   9.114  -0.388   6.002
  719DIO    C1340226   9.020  -0.452   6.082
  719DIO     O240227   9.019  -0.486   6.203
  719DIO    C1440228   8.891  -0.468   6.014
  719DIO    C1540229   8.824  -0.356   5.944
  719DIO     F540230   8.887  -0.237   5.933
  719DIO    C1640231   8.693  -0.368   5.883
  719DIO    C1740232   8.618  -0.493   5.894
  719DIO    C1840233   8.686  -0.610   5.947
  719DIO    C1940234   8.818  -0.597   6.007
  719DIO     F640235   8.881  -0.712   6.041
  719DIO    C2040236   8.477  -0.504   5.840
  719DIO     O340237   8.407  -0.379   5.835
  719DIO    C2140238   8.364  -0.335   5.963
  719DIO    C2240239   8.275  -0.439   6.029
  719DIO    C2340240   8.355  -0.569   6.034
  719DIO     O440241   8.400  -0.606   5.904
  719DIO    C2440242   8.142  -0.463   5.954
  719DIO    C2540243   8.051  -0.340   5.939
  719DIO    C2640244   8.013  -0.275   6.071
  719DIO     H140245   9.733  -0.553   5.957
  719DIO     H240246   9.692  -0.191   6.209
  719DIO     H340247   9.515  -0.166   5.989
  719DIO     H440248   9.264  -0.178   5.961
  719DIO     H540249   9.264  -0.593   6.101
  719DIO     H640250   8.655  -0.285   5.825
  719DIO     H740251   8.644  -0.709   5.938
  719DIO     H840252   8.487  -0.535   5.735
  719DIO     H940253   8.450  -0.312   6.026
  719DIO    H1040254   8.311  -0.240   5.950
  719DIO    H1140255   8.252  -0.408   6.132
  719DIO    H1240256   8.294  -0.651   6.073
  719DIO    H1340257   8.442  -0.559   6.101
  719DIO    H1440258   8.162  -0.503   5.853
  719DIO    H1540259   8.085  -0.541   6.007
  719DIO    H1640260   8.099  -0.266   5.874
  719DIO    H1740261   7.959  -0.371   5.887
  719DIO    H1840262   7.969  -0.348   6.139
  719DIO    H1940263   8.099  -0.229   6.119
  719DIO    H2040264   7.939  -0.196   6.053
  720DIO     F140265   6.116   5.532  -0.212
  720DIO     C140266   6.038   5.640  -0.233
  720DIO     C240267   5.894   5.624  -0.238
  720DIO     C340268   5.805   5.740  -0.263
  720DIO     C440269   5.871   5.872  -0.279
  720DIO     C540270   6.015   5.885  -0.273
  720DIO     F240271   6.070   6.008  -0.284
  720DIO     C640272   6.099   5.770  -0.249
  720DIO     F340273   6.232   5.784  -0.245
  720DIO     C740274   5.659   5.726  -0.270
  720DIO     C840275   5.582   5.782  -0.383
  720DIO     C940276   5.437   5.769  -0.390
  720DIO    C1040277   5.364   5.708  -0.280
  720DIO    C1140278   5.437   5.645  -0.171
  720DIO    C1240279   5.581   5.656  -0.166
  720DIO     F440280   5.646   5.602  -0.061
  720DIO     O140281   5.232   5.677  -0.304
  720DIO    C1340282   5.138   5.684  -0.202
  720DIO     O240283   5.137   5.743  -0.091
  720DIO    C1440284   5.008   5.626  -0.241
  720DIO    C1540285   4.942   5.661  -0.368
  720DIO     F540286   5.005   5.740  -0.458
  720DIO    C1640287   4.811   5.610  -0.405
  720DIO    C1740288   4.736   5.527  -0.312
  720DIO    C1840289   4.804   5.477  -0.193
  720DIO    C1940290   4.936   5.528  -0.158
  720DIO     F640291   4.998   5.467  -0.054
  720DIO    C2040292   4.595   5.482  -0.344
  720DIO     O340293   4.525   5.570  -0.433
  720DIO    C2140294   4.481   5.689  -0.369
  720DIO    C2240295   4.393   5.658  -0.249
  720DIO    C2340296   4.473   5.566  -0.157
  720DIO     O440297   4.518   5.450  -0.227
  720DIO    C2440298   4.260   5.589  -0.289
  720DIO    C2540299   4.169   5.669  -0.383
  720DIO    C2640300   4.131   5.806  -0.331
  720DIO     H140301   5.851   5.526  -0.224
  720DIO     H240302   5.810   5.962  -0.288
  720DIO     H340303   5.633   5.830  -0.466
  720DIO     H440304   5.382   5.802  -0.477
  720DIO     H540305   5.382   5.595  -0.092
  720DIO     H640306   4.773   5.632  -0.504
  720DIO     H740307   4.761   5.399  -0.132
  720DIO     H840308   4.605   5.387  -0.398
  720DIO     H940309   4.568   5.748  -0.338
  720DIO    H1040310   4.429   5.749  -0.444
  720DIO    H1140311   4.370   5.751  -0.196
  720DIO    H1240312   4.412   5.533  -0.073
  720DIO    H1340313   4.559   5.620  -0.115
  720DIO    H1440314   4.280   5.492  -0.335
  720DIO    H1540315   4.203   5.569  -0.197
  720DIO    H1640316   4.216   5.679  -0.482
  720DIO    H1740317   4.077   5.610  -0.399
  720DIO    H1840318   4.087   5.800  -0.231
  720DIO    H1940319   4.217   5.873  -0.327
  720DIO    H2040320   4.057   5.852  -0.398
  721DIO     F140321   3.610   3.724   5.979
  721DIO     C140322   3.532   3.821   5.928
  721DIO     C240323   3.388   3.804   5.927
  721DIO     C340324   3.299   3.908   5.870
  721DIO     C440325   3.365   4.029   5.816
  721DIO     C540326   3.509   4.044   5.818
  721DIO     F240327   3.564   4.158   5.772
  721DIO     C640328   3.593   3.941   5.874
  721DIO     F340329   3.726   3.955   5.874
  721DIO     C740330   3.153   3.892   5.867
  721DIO     C840331   3.076   3.913   5.742
  721DIO     C940332   2.931   3.898   5.739
  721DIO    C1040333   2.858   3.872   5.862
  721DIO    C1140334   2.931   3.843   5.985
  721DIO    C1240335   3.075   3.856   5.987
  721DIO     F440336   3.140   3.834   6.103
  721DIO     O140337   2.726   3.835   5.848
  721DIO    C1340338   2.632   3.872   5.944
  721DIO     O240339   2.631   3.960   6.034
  721DIO    C1440340   2.503   3.805   5.924
  721DIO    C1540341   2.436   3.801   5.792
  721DIO     F540342   2.499   3.851   5.683
  721DIO    C1640343   2.305   3.742   5.772
  721DIO    C1740344   2.230   3.689   5.885
  721DIO    C1840345   2.298   3.677   6.013
  721DIO    C1940346   2.430   3.735   6.032
  721DIO     F640347   2.493   3.707   6.149
  721DIO    C2040348   2.089   3.637   5.867
  721DIO     O340349   2.019   3.695   5.757
  721DIO    C2140350   1.976   3.828   5.783
  721DIO    C2240351   1.887   3.833   5.907
  721DIO    C2340352   1.967   3.772   6.021
  721DIO     O440353   2.012   3.641   5.988
  721DIO    C2440354   1.754   3.756   5.889
  721DIO    C2540355   1.663   3.804   5.775
  721DIO    C2640356   1.625   3.951   5.785
  721DIO     H140357   3.345   3.714   5.969
  721DIO     H240358   3.304   4.113   5.782
  721DIO     H340359   3.127   3.935   5.650
  721DIO     H440360   2.876   3.905   5.647
  721DIO     H540361   2.876   3.818   6.075
  721DIO     H640362   2.267   3.734   5.671
  721DIO     H740363   2.256   3.619   6.094
  721DIO     H840364   2.099   3.531   5.843
  721DIO     H940365   2.062   3.894   5.795
  721DIO    H1040366   1.923   3.864   5.694
  721DIO    H1140367   1.864   3.937   5.931
  721DIO    H1240368   1.906   3.765   6.112
  721DIO    H1340369   2.054   3.835   6.046
  721DIO    H1440370   1.774   3.649   5.873
  721DIO    H1540371   1.697   3.763   5.983
  721DIO    H1640372   1.711   3.785   5.678
  721DIO    H1740373   1.571   3.744   5.777
  721DIO    H1840374   1.581   3.974   5.883
  721DIO    H1940375   1.711   4.016   5.770
  721DIO    H2040376   1.551   3.976   5.708
  722DIO     F140377   3.977   1.861  -0.547
  722DIO     C140378   3.899   1.970  -0.561
  722DIO     C240379   3.755   1.955  -0.568
  722DIO     C340380   3.666   2.072  -0.585
  722DIO     C440381   3.732   2.204  -0.594
  722DIO     C540382   3.876   2.217  -0.587
  722DIO     F240383   3.931   2.340  -0.590
  722DIO     C640384   3.960   2.101  -0.570
  722DIO     F340385   4.093   2.114  -0.565
  722DIO     C740386   3.520   2.058  -0.594
  722DIO     C840387   3.443   2.121  -0.703
  722DIO     C940388   3.298   2.108  -0.711
  722DIO    C1040389   3.225   2.040  -0.605
  722DIO    C1140390   3.298   1.971  -0.500
  722DIO    C1240391   3.442   1.982  -0.494
  722DIO     F440392   3.507   1.921  -0.392
  722DIO     O140393   3.093   2.011  -0.630
  722DIO    C1340394   2.999   2.012  -0.528
  722DIO     O240395   2.998   2.064  -0.413
  722DIO    C1440396   2.869   1.957  -0.570
  722DIO    C1540397   2.803   1.998  -0.695
  722DIO     F540398   2.866   2.083  -0.780
  722DIO    C1640399   2.672   1.950  -0.735
  722DIO    C1740400   2.597   1.861  -0.647
  722DIO    C1840401   2.665   1.805  -0.531
  722DIO    C1940402   2.797   1.853  -0.493
  722DIO     F640403   2.859   1.786  -0.393
  722DIO    C2040404   2.456   1.818  -0.681
  722DIO     O340405   2.386   1.911  -0.765
  722DIO    C2140406   2.342   2.027  -0.695
  722DIO    C2240407   2.254   1.989  -0.577
  722DIO    C2340408   2.334   1.892  -0.490
  722DIO     O440409   2.379   1.780  -0.567
  722DIO    C2440410   2.121   1.923  -0.620
  722DIO    C2540411   2.030   2.007  -0.710
  722DIO    C2640412   1.992   2.141  -0.650
  722DIO     H140413   3.712   1.855  -0.559
  722DIO     H240414   3.671   2.294  -0.597
  722DIO     H340415   3.494   2.173  -0.782
  722DIO     H440416   3.243   2.146  -0.795
  722DIO     H540417   3.243   1.916  -0.424
  722DIO     H640418   2.634   1.977  -0.832
  722DIO     H740419   2.622   1.723  -0.475
  722DIO     H840420   2.466   1.727  -0.742
  722DIO     H940421   2.429   2.084  -0.660
  722DIO    H1040422   2.290   2.091  -0.765
  722DIO    H1140423   2.231   2.078  -0.518
  722DIO    H1240424   2.273   1.853  -0.408
  722DIO    H1340425   2.420   1.942  -0.445
  722DIO    H1440426   2.141   1.828  -0.672
  722DIO    H1540427   2.064   1.896  -0.529
  722DIO    H1640428   2.077   2.023  -0.807
  722DIO    H1740429   1.938   1.950  -0.729
  722DIO    H1840430   1.948   2.129  -0.550
  722DIO    H1940431   2.078   2.208  -0.641
  722DIO    H2040432   1.918   2.191  -0.713
  723DIO     F140433   4.085   2.081  -0.083
  723DIO     C140434   4.008   2.101   0.025
  723DIO     C240435   3.864   2.107   0.009
  723DIO     C340436   3.775   2.131   0.125
  723DIO     C440437   3.840   2.146   0.257
  723DIO     C540438   3.985   2.140   0.270
  723DIO     F240439   4.040   2.150   0.392
  723DIO     C640440   4.068   2.117   0.155
  723DIO     F340441   4.202   2.112   0.168
  723DIO     C740442   3.629   2.138   0.111
  723DIO     C840443   3.551   2.251   0.167
  723DIO     C940444   3.407   2.258   0.154
  723DIO    C1040445   3.334   2.148   0.093
  723DIO    C1140446   3.407   2.040   0.029
  723DIO    C1240447   3.551   2.034   0.040
  723DIO     F440448   3.616   1.930  -0.015
  723DIO     O140449   3.202   2.172   0.062
  723DIO    C1340450   3.107   2.070   0.069
  723DIO     O240451   3.107   1.959   0.126
  723DIO    C1440452   2.978   2.109   0.011
  723DIO    C1540453   2.912   2.237   0.046
  723DIO     F540454   2.975   2.326   0.126
  723DIO    C1640455   2.781   2.273  -0.005
  723DIO    C1740456   2.705   2.181  -0.089
  723DIO    C1840457   2.774   2.062  -0.138
  723DIO    C1940458   2.906   2.027  -0.088
  723DIO     F640459   2.968   1.924  -0.150
  723DIO    C2040460   2.565   2.213  -0.133
  723DIO     O340461   2.495   2.302  -0.045
  723DIO    C2140462   2.451   2.237   0.074
  723DIO    C2240463   2.362   2.118   0.042
  723DIO    C2340464   2.443   2.026  -0.050
  723DIO     O440465   2.487   2.097  -0.165
  723DIO    C2440466   2.230   2.157  -0.026
  723DIO    C2540467   2.139   2.251   0.054
  723DIO    C2640468   2.101   2.198   0.191
  723DIO     H140469   3.821   2.093  -0.090
  723DIO     H240470   3.780   2.154   0.347
  723DIO     H340471   3.603   2.333   0.216
  723DIO     H440472   3.352   2.344   0.188
  723DIO     H540473   3.352   1.961  -0.022
  723DIO     H640474   2.743   2.372   0.018
  723DIO     H740475   2.731   2.002  -0.217
  723DIO     H840476   2.574   2.268  -0.227
  723DIO     H940477   2.538   2.206   0.134
  723DIO    H1040478   2.399   2.311   0.135
  723DIO    H1140479   2.340   2.063   0.135
  723DIO    H1240480   2.382   1.942  -0.084
  723DIO    H1340481   2.529   1.984   0.003
  723DIO    H1440482   2.250   2.204  -0.123
  723DIO    H1540483   2.173   2.065  -0.047
  723DIO    H1640484   2.186   2.350   0.064
  723DIO    H1740485   2.047   2.268  -0.004
  723DIO    H1840486   2.057   2.099   0.184
  723DIO    H1940487   2.187   2.194   0.258
  723DIO    H2040488   2.027   2.265   0.237
  724DIO     F140489   9.830   6.361   3.055
  724DIO     C140490   9.753   6.402   3.157
  724DIO     C240491   9.609   6.405   3.140
  724DIO     C340492   9.520   6.452   3.249
  724DIO     C440493   9.585   6.493   3.375
  724DIO     C540494   9.730   6.490   3.389
  724DIO     F240495   9.785   6.525   3.507
  724DIO     C640496   9.813   6.444   3.281
  724DIO     F340497   9.947   6.443   3.295
  724DIO     C740498   9.373   6.456   3.233
  724DIO     C840499   9.296   6.578   3.266
  724DIO     C940500   9.152   6.582   3.252
  724DIO    C1040501   9.079   6.463   3.213
  724DIO    C1140502   9.152   6.343   3.173
  724DIO    C1240503   9.296   6.340   3.185
  724DIO     F440504   9.361   6.227   3.152
  724DIO     O140505   8.947   6.480   3.178
  724DIO    C1340506   8.852   6.381   3.206
  724DIO     O240507   8.851   6.283   3.285
  724DIO    C1440508   8.723   6.408   3.141
  724DIO    C1540509   8.657   6.540   3.150
  724DIO     F540510   8.720   6.643   3.210
  724DIO    C1640511   8.526   6.565   3.093
  724DIO    C1740512   8.450   6.458   3.029
  724DIO    C1840513   8.519   6.332   3.004
  724DIO    C1940514   8.651   6.307   3.061
  724DIO     F640515   8.713   6.194   3.021
  724DIO    C2040516   8.310   6.481   2.979
  724DIO     O340517   8.240   6.585   3.048
  724DIO    C2140518   8.196   6.546   3.178
  724DIO    C2240519   8.107   6.422   3.170
  724DIO    C2340520   8.188   6.314   3.099
  724DIO     O440521   8.232   6.360   2.971
  724DIO    C2440522   7.975   6.447   3.096
  724DIO    C2540523   7.884   6.556   3.155
  724DIO    C2640524   7.845   6.532   3.300
  724DIO     H140525   9.566   6.372   3.046
  724DIO     H240526   9.525   6.519   3.461
  724DIO     H340527   9.348   6.668   3.297
  724DIO     H440528   9.097   6.674   3.268
  724DIO     H540529   9.097   6.256   3.139
  724DIO     H640530   8.488   6.667   3.095
  724DIO     H740531   8.476   6.257   2.939
  724DIO     H840532   8.319   6.516   2.876
  724DIO     H940533   8.283   6.527   3.242
  724DIO    H1040534   8.143   6.631   3.222
  724DIO    H1140535   8.085   6.388   3.272
  724DIO    H1240536   8.127   6.225   3.082
  724DIO    H1340537   8.274   6.283   3.159
  724DIO    H1440538   7.994   6.474   2.991
  724DIO    H1540539   7.918   6.353   3.093
  724DIO    H1640540   7.931   6.654   3.145
  724DIO    H1740541   7.792   6.560   3.095
  724DIO    H1840542   7.802   6.432   3.313
  724DIO    H1940543   7.932   6.540   3.366
  724DIO    H2040544   7.772   6.606   3.332
  725DIO     F140545   1.354   7.620   4.427
  725DIO     C140546   1.277   7.632   4.536
  725DIO     C240547   1.133   7.639   4.521
  725DIO     C340548   1.044   7.654   4.638
  725DIO     C440549   1.109   7.659   4.771
  725DIO     C540550   1.254   7.652   4.784
  725DIO     F240551   1.309   7.653   4.907
  725DIO     C640552   1.337   7.638   4.667
  725DIO     F340553   1.471   7.632   4.680
  725DIO     C740554   0.898   7.662   4.625
  725DIO     C840555   0.820   7.770   4.690
  725DIO     C940556   0.676   7.778   4.677
  725DIO    C1040557   0.603   7.674   4.608
  725DIO    C1140558   0.676   7.570   4.536
  725DIO    C1240559   0.820   7.564   4.547
  725DIO     F440560   0.885   7.464   4.484
  725DIO     O140561   0.471   7.700   4.579
  725DIO    C1340562   0.376   7.598   4.578
  725DIO     O240563   0.376   7.482   4.627
  725DIO    C1440564   0.247   7.641   4.523
  725DIO    C1540565   0.181   7.765   4.568
  725DIO     F540566   0.244   7.848   4.654
  725DIO    C1640567   0.050   7.806   4.520
  725DIO    C1740568  -0.026   7.720   4.429
  725DIO    C1840569   0.043   7.606   4.371
  725DIO    C1940570   0.175   7.566   4.418
  725DIO     F640571   0.237   7.468   4.349
  725DIO    C2040572  -0.166   7.755   4.387
  725DIO     O340573  -0.236   7.837   4.482
  725DIO    C2140574  -0.280   7.764   4.596
  725DIO    C2240575  -0.369   7.647   4.555
  725DIO    C2340576  -0.288   7.563   4.457
  725DIO     O440577  -0.244   7.642   4.347
  725DIO    C2440578  -0.501   7.692   4.490
  725DIO    C2540579  -0.592   7.780   4.577
  725DIO    C2640580  -0.630   7.716   4.710
  725DIO     H140581   1.090   7.633   4.422
  725DIO     H240582   1.049   7.660   4.861
  725DIO     H340583   0.872   7.848   4.745
  725DIO     H440584   0.621   7.862   4.718
  725DIO     H540585   0.621   7.496   4.480
  725DIO     H640586   0.012   7.903   4.550
  725DIO     H740587   0.000   7.552   4.287
  725DIO     H840588  -0.157   7.818   4.298
  725DIO     H940589  -0.193   7.728   4.653
  725DIO    H1040590  -0.332   7.833   4.662
  725DIO    H1140591  -0.391   7.586   4.643
  725DIO    H1240592  -0.349   7.481   4.416
  725DIO    H1340593  -0.202   7.516   4.506
  725DIO    H1440594  -0.481   7.745   4.397
  725DIO    H1540595  -0.558   7.602   4.462
  725DIO    H1640596  -0.545   7.877   4.595
  725DIO    H1740597  -0.684   7.800   4.520
  725DIO    H1840598  -0.674   7.617   4.695
  725DIO    H1940599  -0.544   7.706   4.776
  725DIO    H2040600  -0.704   7.779   4.761
  726DIO     F140601   2.317   8.011   9.667
  726DIO     C140602   2.239   8.120   9.649
  726DIO     C240603   2.095   8.104   9.643
  726DIO     C340604   2.006   8.221   9.621
  726DIO     C440605   2.072   8.353   9.608
  726DIO     C540606   2.216   8.366   9.614
  726DIO     F240607   2.272   8.489   9.607
  726DIO     C640608   2.300   8.250   9.635
  726DIO     F340609   2.434   8.264   9.640
  726DIO     C740610   1.860   8.206   9.613
  726DIO     C840611   1.783   8.265   9.501
  726DIO     C940612   1.638   8.252   9.494
  726DIO    C1040613   1.566   8.189   9.603
  726DIO    C1140614   1.638   8.123   9.710
  726DIO    C1240615   1.782   8.134   9.716
  726DIO     F440616   1.847   8.077   9.819
  726DIO     O140617   1.433   8.158   9.578
  726DIO    C1340618   1.339   8.163   9.680
  726DIO     O240619   1.338   8.219   9.793
  726DIO    C1440620   1.210   8.106   9.640
  726DIO    C1540621   1.143   8.144   9.513
  726DIO     F540622   1.206   8.225   9.426
  726DIO    C1640623   1.013   8.093   9.476
  726DIO    C1740624   0.937   8.008   9.567
  726DIO    C1840625   1.006   7.956   9.684
  726DIO    C1940626   1.137   8.005   9.721
  726DIO     F640627   1.200   7.942   9.823
  726DIO    C2040628   0.796   7.964   9.534
  726DIO     O340629   0.726   8.054   9.447
  726DIO    C2140630   0.683   8.172   9.513
  726DIO    C2240631   0.594   8.138   9.632
  726DIO    C2340632   0.675   8.044   9.722
  726DIO     O440633   0.719   7.930   9.649
  726DIO    C2440634   0.461   8.070   9.591
  726DIO    C2540635   0.370   8.152   9.499
  726DIO    C2640636   0.332   8.288   9.554
  726DIO     H140637   2.053   8.005   9.654
  726DIO     H240638   2.011   8.443   9.602
  726DIO     H340639   1.834   8.315   9.421
  726DIO     H440640   1.583   8.288   9.408
  726DIO     H540641   1.584   8.071   9.788
  726DIO     H640642   0.975   8.118   9.377
  726DIO     H740643   0.963   7.876   9.743
  726DIO     H840644   0.806   7.871   9.477
  726DIO     H940645   0.769   8.231   9.546
  726DIO    H1040646   0.630   8.234   9.440
  726DIO    H1140647   0.571   8.229   9.688
  726DIO    H1240648   0.614   8.009   9.806
  726DIO    H1340649   0.761   8.096   9.766
  726DIO    H1440650   0.481   7.974   9.543
  726DIO    H1540651   0.405   8.047   9.683
  726DIO    H1640652   0.418   8.164   9.401
  726DIO    H1740653   0.279   8.094   9.481
  726DIO    H1840654   0.288   8.279   9.654
  726DIO    H1940655   0.419   8.355   9.560
  726DIO    H2040656   0.258   8.336   9.489
  727DIO     F140657   4.703   7.375   4.949
  727DIO     C140658   4.625   7.474   4.901
  727DIO     C240659   4.481   7.457   4.900
  727DIO     C340660   4.392   7.562   4.846
  727DIO     C440661   4.458   7.686   4.796
  727DIO     C540662   4.602   7.700   4.799
  727DIO     F240663   4.658   7.816   4.757
  727DIO     C640664   4.686   7.595   4.852
  727DIO     F340665   4.820   7.609   4.852
  727DIO     C740666   4.246   7.547   4.843
  727DIO     C840667   4.169   7.572   4.719
  727DIO     C940668   4.024   7.557   4.716
  727DIO    C1040669   3.952   7.527   4.838
  727DIO    C1140670   4.024   7.494   4.959
  727DIO    C1240671   4.168   7.506   4.962
  727DIO     F440672   4.233   7.481   5.077
  727DIO     O140673   3.819   7.491   4.823
  727DIO    C1340674   3.725   7.524   4.919
  727DIO     O240675   3.724   7.609   5.012
  727DIO    C1440676   3.596   7.458   4.897
  727DIO    C1540677   3.530   7.458   4.765
  727DIO     F540678   3.592   7.512   4.658
  727DIO    C1640679   3.399   7.400   4.743
  727DIO    C1740680   3.323   7.343   4.854
  727DIO    C1840681   3.392   7.327   4.981
  727DIO    C1940682   3.523   7.384   5.003
  727DIO     F640683   3.586   7.352   5.118
  727DIO    C2040684   3.182   7.292   4.835
  727DIO     O340685   3.113   7.354   4.726
  727DIO    C2140686   3.069   7.486   4.757
  727DIO    C2240687   2.980   7.486   4.881
  727DIO    C2340688   3.061   7.422   4.993
  727DIO     O440689   3.105   7.292   4.955
  727DIO    C2440690   2.847   7.410   4.860
  727DIO    C2540691   2.757   7.462   4.748
  727DIO    C2640692   2.718   7.608   4.763
  727DIO     H140693   4.439   7.365   4.939
  727DIO     H240694   4.397   7.770   4.765
  727DIO     H340695   4.220   7.597   4.627
  727DIO     H440696   3.969   7.567   4.623
  727DIO     H540697   3.970   7.466   5.048
  727DIO     H640698   3.361   7.395   4.641
  727DIO     H740699   3.349   7.266   5.060
  727DIO     H840700   3.192   7.186   4.806
  727DIO     H940701   3.156   7.551   4.771
  727DIO    H1040702   3.016   7.525   4.669
  727DIO    H1140703   2.957   7.590   4.909
  727DIO    H1240704   3.000   7.411   5.083
  727DIO    H1340705   3.147   7.484   5.020
  727DIO    H1440706   2.867   7.304   4.841
  727DIO    H1540707   2.791   7.414   4.954
  727DIO    H1640708   2.804   7.446   4.651
  727DIO    H1740709   2.665   7.402   4.748
  727DIO    H1840710   2.674   7.628   4.862
  727DIO    H1940711   2.805   7.674   4.750
  727DIO    H2040712   2.644   7.636   4.687
  728DIO     F140713   3.163   6.907   9.430
  728DIO     C140714   3.086   6.846   9.338
  728DIO     C240715   2.942   6.847   9.355
  728DIO     C340716   2.853   6.779   9.258
  728DIO     C440717   2.918   6.713   9.143
  728DIO     C540718   3.063   6.713   9.129
  728DIO     F240719   3.118   6.656   9.020
  728DIO     C640720   3.146   6.780   9.225
  728DIO     F340721   3.280   6.779   9.211
  728DIO     C740722   2.707   6.778   9.274
  728DIO     C840723   2.629   6.652   9.267
  728DIO     C940724   2.485   6.651   9.282
  728DIO    C1040725   2.412   6.776   9.295
  728DIO    C1140726   2.485   6.901   9.310
  728DIO    C1240727   2.629   6.901   9.298
  728DIO     F440728   2.694   7.019   9.307
  728DIO     O140729   2.280   6.766   9.333
  728DIO    C1340730   2.185   6.857   9.286
  728DIO     O240731   2.185   6.937   9.189
  728DIO    C1440732   2.056   6.844   9.355
  728DIO    C1540733   1.990   6.713   9.373
  728DIO     F540734   2.053   6.600   9.335
  728DIO    C1640735   1.859   6.699   9.434
  728DIO    C1740736   1.783   6.817   9.474
  728DIO    C1840737   1.852   6.946   9.473
  728DIO    C1940738   1.984   6.959   9.413
  728DIO     F640739   2.046   7.078   9.429
  728DIO    C2040740   1.643   6.806   9.528
  728DIO     O340741   1.573   6.689   9.482
  728DIO    C2140742   1.529   6.701   9.347
  728DIO    C2240743   1.440   6.824   9.329
  728DIO    C2340744   1.521   6.944   9.377
  728DIO     O440745   1.565   6.925   9.511
  728DIO    C2440746   1.308   6.815   9.407
  728DIO    C2540747   1.217   6.696   9.371
  728DIO    C2640748   1.179   6.691   9.224
  728DIO     H140749   2.899   6.899   9.441
  728DIO     H240750   2.858   6.670   9.064
  728DIO     H340751   2.681   6.558   9.255
  728DIO     H440752   2.430   6.558   9.285
  728DIO     H540753   2.430   6.993   9.326
  728DIO     H640754   1.821   6.600   9.452
  728DIO     H740755   1.809   7.033   9.522
  728DIO     H840756   1.652   6.792   9.636
  728DIO     H940757   1.616   6.707   9.280
  728DIO    H1040758   1.477   6.609   9.320
  728DIO    H1140759   1.418   6.837   9.223
  728DIO    H1240760   1.460   7.035   9.375
  728DIO    H1340761   1.607   6.962   9.312
  728DIO    H1440762   1.328   6.810   9.515
  728DIO    H1540763   1.251   6.907   9.391
  728DIO    H1640764   1.264   6.602   9.400
  728DIO    H1740765   1.125   6.704   9.431
  728DIO    H1840766   1.135   6.785   9.191
  728DIO    H1940767   1.265   6.669   9.161
  728DIO    H2040768   1.105   6.612   9.208
  729DIO     F140769   2.437   8.881   3.817
  729DIO     C140770   2.360   8.794   3.749
  729DIO     C240771   2.216   8.801   3.765
  729DIO     C340772   2.127   8.706   3.694
  729DIO     C440773   2.192   8.607   3.605
  729DIO     C540774   2.337   8.603   3.591
  729DIO     F240775   2.392   8.514   3.506
  729DIO     C640776   2.420   8.696   3.662
  729DIO     F340777   2.554   8.691   3.649
  729DIO     C740778   1.981   8.710   3.709
  729DIO     C840779   1.903   8.588   3.741
  729DIO     C940780   1.759   8.591   3.756
  729DIO    C1040781   1.686   8.714   3.730
  729DIO    C1140782   1.759   8.838   3.705
  729DIO    C1240783   1.903   8.834   3.693
  729DIO     F440784   1.968   8.949   3.665
  729DIO     O140785   1.554   8.716   3.769
  729DIO    C1340786   1.459   8.788   3.696
  729DIO     O240787   1.459   8.834   3.579
  729DIO    C1440788   1.330   8.798   3.765
  729DIO    C1540789   1.264   8.679   3.823
  729DIO     F540790   1.327   8.559   3.822
  729DIO    C1640791   1.133   8.685   3.886
  729DIO    C1740792   1.057   8.809   3.887
  729DIO    C1840793   1.126   8.931   3.846
  729DIO    C1940794   1.258   8.925   3.785
  729DIO     F640795   1.320   9.043   3.762
  729DIO    C2040796   0.917   8.815   3.942
  729DIO     O340797   0.847   8.690   3.934
  729DIO    C2140798   0.803   8.659   3.802
  729DIO    C2240799   0.714   8.770   3.747
  729DIO    C2340800   0.795   8.900   3.755
  729DIO     O440801   0.839   8.923   3.889
  729DIO    C2440802   0.582   8.786   3.824
  729DIO    C2540803   0.491   8.662   3.827
  729DIO    C2640804   0.453   8.611   3.689
  729DIO     H140805   2.173   8.876   3.830
  729DIO     H240806   2.132   8.542   3.543
  729DIO     H340807   1.955   8.494   3.759
  729DIO     H440808   1.704   8.504   3.788
  729DIO     H540809   1.704   8.930   3.691
  729DIO     H640810   1.095   8.596   3.934
  729DIO     H740811   1.083   9.029   3.865
  729DIO     H840812   0.926   8.836   4.049
  729DIO     H940813   0.890   8.644   3.737
  729DIO    H1040814   0.751   8.564   3.806
  729DIO    H1140815   0.692   8.750   3.642
  729DIO    H1240816   0.734   8.985   3.725
  729DIO    H1340817   0.881   8.897   3.687
  729DIO    H1440818   0.602   8.815   3.928
  729DIO    H1540819   0.525   8.869   3.780
  729DIO    H1640820   0.538   8.582   3.884
  729DIO    H1740821   0.399   8.688   3.881
  729DIO    H1840822   0.409   8.691   3.628
  729DIO    H1940823   0.539   8.571   3.636
  729DIO    H2040824   0.379   8.531   3.698
  730DIO     F140825   5.772   6.735   9.769
  730DIO     C140826   5.695   6.837   9.811
  730DIO     C240827   5.551   6.826   9.798
  730DIO     C340828   5.462   6.937   9.840
  730DIO     C440829   5.527   7.056   9.899
  730DIO     C540830   5.672   7.064   9.912
  730DIO     F240831   5.727   7.172   9.970
  730DIO     C640832   5.755   6.954   9.868
  730DIO     F340833   5.889   6.963   9.880
  730DIO     C740834   5.315   6.929   9.827
  730DIO     C840835   5.238   7.038   9.763
  730DIO     C940836   5.094   7.030   9.750
  730DIO    C1040837   5.021   6.919   9.808
  730DIO    C1140838   5.093   6.807   9.865
  730DIO    C1240839   5.238   6.813   9.876
  730DIO     F440840   5.302   6.710   9.933
  730DIO     O140841   4.889   6.906   9.771
  730DIO    C1340842   4.794   6.857   9.861
  730DIO     O240843   4.793   6.844   9.986
  730DIO    C1440844   4.665   6.829   9.797
  730DIO    C1540845   4.599   6.928   9.709
  730DIO     F540846   4.661   7.044   9.678
  730DIO    C1640847   4.468   6.905   9.650
  730DIO    C1740848   4.392   6.785   9.682
  730DIO    C1840849   4.461   6.679   9.755
  730DIO    C1940850   4.593   6.701   9.812
  730DIO     F640851   4.655   6.594   9.865
  730DIO    C2040852   4.252   6.765   9.631
  730DIO     O340853   4.182   6.887   9.605
  730DIO    C2140854   4.138   6.952   9.724
  730DIO    C2240855   4.049   6.860   9.807
  730DIO    C2340856   4.130   6.733   9.833
  730DIO     O440857   4.174   6.675   9.711
  730DIO    C2440858   3.916   6.825   9.736
  730DIO    C2540859   3.826   6.943   9.701
  730DIO    C2640860   3.787   7.029   9.820
  730DIO     H140861   5.508   6.736   9.755
  730DIO     H240862   5.467   7.136   9.942
  730DIO     H340863   5.290   7.123   9.721
  730DIO     H440864   5.038   7.106   9.696
  730DIO     H540865   5.039   6.722   9.903
  730DIO     H640866   4.430   6.978   9.580
  730DIO     H740867   4.418   6.580   9.762
  730DIO     H840868   4.261   6.716   9.534
  730DIO     H940869   4.225   6.985   9.782
  730DIO    H1040870   4.085   7.044   9.694
  730DIO    H1140871   4.027   6.908   9.903
  730DIO    H1240872   4.069   6.659   9.886
  730DIO    H1340873   4.216   6.755   9.898
  730DIO    H1440874   3.936   6.768   9.644
  730DIO    H1540875   3.860   6.757   9.802
  730DIO    H1640876   3.873   7.005   9.624
  730DIO    H1740877   3.734   6.903   9.655
  730DIO    H1840878   3.743   6.969   9.900
  730DIO    H1940879   3.874   7.083   9.860
  730DIO    H2040880   3.714   7.104   9.789
  731DIO     F140881   5.801   1.468   1.463
  731DIO     C140882   5.723   1.359   1.479
  731DIO     C240883   5.579   1.374   1.485
  731DIO     C340884   5.490   1.258   1.505
  731DIO     C440885   5.556   1.125   1.516
  731DIO     C540886   5.700   1.112   1.509
  731DIO     F240887   5.756   0.990   1.515
  731DIO     C640888   5.784   1.228   1.490
  731DIO     F340889   5.918   1.215   1.485
  731DIO     C740890   5.344   1.272   1.513
  731DIO     C840891   5.267   1.211   1.624
  731DIO     C940892   5.122   1.224   1.631
  731DIO    C1040893   5.050   1.289   1.524
  731DIO    C1140894   5.122   1.357   1.418
  731DIO    C1240895   5.266   1.346   1.412
  731DIO     F440896   5.331   1.405   1.309
  731DIO     O140897   4.917   1.319   1.549
  731DIO    C1340898   4.823   1.316   1.447
  731DIO     O240899   4.822   1.262   1.333
  731DIO    C1440900   4.694   1.372   1.488
  731DIO    C1540901   4.627   1.333   1.614
  731DIO     F540902   4.690   1.250   1.700
  731DIO    C1640903   4.497   1.382   1.653
  731DIO    C1740904   4.421   1.469   1.563
  731DIO    C1840905   4.490   1.523   1.447
  731DIO    C1940906   4.621   1.475   1.409
  731DIO     F640907   4.684   1.540   1.308
  731DIO    C2040908   4.280   1.512   1.597
  731DIO     O340909   4.210   1.421   1.682
  731DIO    C2140910   4.167   1.304   1.614
  731DIO    C2240911   4.078   1.341   1.495
  731DIO    C2340912   4.159   1.436   1.407
  731DIO     O440913   4.203   1.549   1.482
  731DIO    C2440914   3.945   1.407   1.537
  731DIO    C2540915   3.854   1.324   1.629
  731DIO    C2640916   3.816   1.189   1.571
  731DIO     H140917   5.537   1.474   1.476
  731DIO     H240918   5.495   1.035   1.521
  731DIO     H340919   5.318   1.159   1.704
  731DIO     H440920   5.067   1.187   1.717
  731DIO     H540921   5.068   1.410   1.341
  731DIO     H640922   4.459   1.356   1.751
  731DIO     H740923   4.447   1.604   1.389
  731DIO     H840924   4.290   1.605   1.656
  731DIO     H940925   4.253   1.246   1.580
  731DIO    H1040926   4.114   1.241   1.685
  731DIO    H1140927   4.055   1.250   1.438
  731DIO    H1240928   4.098   1.473   1.324
  731DIO    H1340929   4.245   1.385   1.363
  731DIO    H1440930   3.965   1.503   1.587
  731DIO    H1540931   3.889   1.432   1.446
  731DIO    H1640932   3.902   1.310   1.726
  731DIO    H1740933   3.763   1.382   1.647
  731DIO    H1840934   3.772   1.200   1.471
  731DIO    H1940935   3.903   1.122   1.563
  731DIO    H2040936   3.742   1.140   1.635
  732DIO     F140937   2.102   9.955  10.436
  732DIO     C140938   2.025  10.033  10.358
  732DIO     C240939   1.881  10.016  10.362
  732DIO     C340940   1.792  10.097  10.276
  732DIO     C440941   1.857  10.197  10.188
  732DIO     C540942   2.002  10.211  10.185
  732DIO     F240943   2.057  10.306  10.107
  732DIO     C640944   2.085  10.130  10.270
  732DIO     F340945   2.219  10.144  10.266
  732DIO     C740946   1.645  10.082  10.278
  732DIO     C840947   1.568  10.064  10.153
  732DIO     C940948   1.424  10.049  10.155
  732DIO    C1040949   1.351  10.061  10.280
  732DIO    C1140950   1.424  10.071  10.406
  732DIO    C1240951   1.568  10.083  10.404
  732DIO     F440952   1.633  10.098  10.521
  732DIO     O140953   1.219  10.022  10.278
  732DIO    C1340954   1.124  10.086  10.358
  732DIO     O240955   1.123  10.197  10.416
  732DIO    C1440956   0.995  10.016  10.359
  732DIO    C1540957   0.929   9.972  10.234
  732DIO     F540958   0.992   9.987  10.116
  732DIO    C1640959   0.798   9.909  10.233
  732DIO    C1740960   0.722   9.894  10.357
  732DIO    C1840961   0.791   9.921  10.483
  732DIO    C1940962   0.923   9.982  10.484
  732DIO     F640963   0.985   9.991  10.603
  732DIO    C2040964   0.582   9.839  10.356
  732DIO     O340965   0.512   9.861  10.233
  732DIO    C2140966   0.468   9.995  10.217
  732DIO    C2240967   0.379  10.037  10.334
  732DIO    C2340968   0.460  10.014  10.462
  732DIO     O440969   0.504   9.879  10.470
  732DIO    C2440970   0.247   9.959  10.341
  732DIO    C2540971   0.156   9.970  10.218
  732DIO    C2640972   0.117  10.113  10.182
  732DIO     H140973   1.838   9.943  10.430
  732DIO     H240974   1.797  10.266  10.130
  732DIO     H340975   1.620  10.056  10.058
  732DIO     H440976   1.369  10.027  10.065
  732DIO     H540977   1.369  10.075  10.499
  732DIO     H640978   0.760   9.871  10.139
  732DIO     H740979   0.748   9.890  10.577
  732DIO     H840980   0.591   9.730  10.365
  732DIO     H940981   0.555  10.062  10.209
  732DIO    H1040982   0.415  10.002  10.122
  732DIO    H1140983   0.357  10.144  10.326
  732DIO    H1240984   0.399  10.035  10.550
  732DIO    H1340985   0.546  10.082  10.466
  732DIO    H1440986   0.266   9.852  10.358
  732DIO    H1540987   0.190   9.994  10.428
  732DIO    H1640988   0.203   9.923  10.131
  732DIO    H1740989   0.064   9.913  10.237
  732DIO    H1840990   0.074  10.164  10.269
  732DIO    H1940991   0.204  10.171  10.148
  732DIO    H2040992   0.044  10.113  10.102
  733DIO     F140993   2.567   4.517   9.914
  733DIO     C140994   2.489   4.408   9.925
  733DIO     C240995   2.345   4.423   9.932
  733DIO     C340996   2.256   4.306   9.946
  733DIO     C440997   2.322   4.173   9.949
  733DIO     C540998   2.466   4.160   9.942
  733DIO     F240999   2.521   4.037   9.942
  733DIO     C641000   2.550   4.277   9.929
  733DIO     F341001   2.684   4.264   9.924
  733DIO     C741002   2.110   4.319   9.954
  733DIO     C841003   2.033   4.253  10.062
  733DIO     C941004   1.888   4.265  10.070
  733DIO    C1041005   1.815   4.336   9.966
  733DIO    C1141006   1.888   4.409   9.863
  733DIO    C1241007   2.032   4.398   9.857
  733DIO     F441008   2.097   4.462   9.758
  733DIO     O141009   1.683   4.365   9.993
  733DIO    C1341010   1.589   4.367   9.890
  733DIO     O241011   1.588   4.319   9.774
  733DIO    C1441012   1.460   4.421   9.934
  733DIO    C1541013   1.393   4.375  10.058
  733DIO     F541014   1.456   4.288  10.140
  733DIO    C1641015   1.263   4.423  10.099
  733DIO    C1741016   1.187   4.514  10.014
  733DIO    C1841017   1.256   4.574   9.901
  733DIO    C1941018   1.387   4.527   9.860
  733DIO     F641019   1.450   4.597   9.763
  733DIO    C2041020   1.046   4.555  10.050
  733DIO     O341021   0.976   4.460  10.131
  733DIO    C2141022   0.933   4.347  10.056
  733DIO    C2241023   0.844   4.389   9.940
  733DIO    C2341024   0.925   4.489   9.857
  733DIO     O441025   0.969   4.597   9.937
  733DIO    C2441026   0.711   4.454   9.985
  733DIO    C2541027   0.620   4.366  10.072
  733DIO    C2641028   0.582   4.234  10.007
  733DIO     H141029   2.302   4.523   9.927
  733DIO     H241030   2.261   4.083   9.950
  733DIO     H341031   2.084   4.197  10.139
  733DIO     H441032   1.833   4.224  10.153
  733DIO     H541033   1.834   4.466   9.789
  733DIO     H641034   1.224   4.391  10.196
  733DIO     H741035   1.213   4.658   9.848
  733DIO     H841036   1.056   4.645  10.113
  733DIO     H941037   1.019   4.290  10.020
  733DIO    H1041038   0.880   4.280  10.125
  733DIO    H1141039   0.821   4.302   9.878
  733DIO    H1241040   0.863   4.530   9.776
  733DIO    H1341041   1.011   4.440   9.810
  733DIO    H1441042   0.731   4.546  10.040
  733DIO    H1541043   0.655   4.483   9.896
  733DIO    H1641044   0.668   4.347  10.169
  733DIO    H1741045   0.529   4.422  10.094
  733DIO    H1841046   0.538   4.250   9.908
  733DIO    H1941047   0.668   4.168   9.997
  733DIO    H2041048   0.508   4.182  10.069
  734DIO     F141049   6.243   6.100  10.155
  734DIO     C141050   6.166   6.202  10.197
  734DIO     C241051   6.022   6.192  10.183
  734DIO     C341052   5.933   6.302  10.226
  734DIO     C441053   5.998   6.422  10.284
  734DIO     C541054   6.143   6.430  10.296
  734DIO     F241055   6.198   6.538  10.354
  734DIO     C641056   6.226   6.320  10.254
  734DIO     F341057   6.360   6.329  10.265
  734DIO     C741058   5.786   6.294  10.212
  734DIO     C841059   5.709   6.403  10.147
  734DIO     C941060   5.565   6.395  10.134
  734DIO    C1041061   5.492   6.285  10.193
  734DIO    C1141062   5.564   6.172  10.251
  734DIO    C1241063   5.709   6.179  10.261
  734DIO     F441064   5.773   6.076  10.320
  734DIO     O141065   5.360   6.272  10.157
  734DIO    C1341066   5.265   6.223  10.246
  734DIO     O241067   5.264   6.211  10.372
  734DIO    C1441068   5.136   6.194  10.182
  734DIO    C1541069   5.070   6.293  10.094
  734DIO     F541070   5.132   6.408  10.062
  734DIO    C1641071   4.939   6.270  10.035
  734DIO    C1741072   4.863   6.150  10.068
  734DIO    C1841073   4.932   6.044  10.141
  734DIO    C1941074   5.064   6.066  10.198
  734DIO     F641075   5.126   5.959  10.252
  734DIO    C2041076   4.723   6.129  10.017
  734DIO     O341077   4.653   6.251   9.990
  734DIO    C2141078   4.609   6.317  10.109
  734DIO    C2241079   4.520   6.226  10.192
  734DIO    C2341080   4.601   6.099  10.220
  734DIO     O441081   4.645   6.040  10.098
  734DIO    C2441082   4.387   6.190  10.122
  734DIO    C2541083   4.297   6.308  10.086
  734DIO    C2641084   4.258   6.395  10.204
  734DIO     H141085   5.979   6.101  10.142
  734DIO     H241086   5.938   6.502  10.326
  734DIO     H341087   5.761   6.488  10.105
  734DIO     H441088   5.509   6.471  10.080
  734DIO     H541089   5.510   6.088  10.290
  734DIO     H641090   4.901   6.342   9.964
  734DIO     H741091   4.889   5.945  10.149
  734DIO     H841092   4.732   6.080   9.920
  734DIO     H941093   4.696   6.350  10.167
  734DIO    H1041094   4.556   6.408  10.079
  734DIO    H1141095   4.498   6.274  10.288
  734DIO    H1241096   4.540   6.025  10.272
  734DIO    H1341097   4.687   6.121  10.284
  734DIO    H1441098   4.407   6.133  10.030
  734DIO    H1541099   4.331   6.122  10.188
  734DIO    H1641100   4.344   6.369  10.009
  734DIO    H1741101   4.205   6.268  10.041
  734DIO    H1841102   4.214   6.335  10.285
  734DIO    H1941103   4.345   6.448  10.244
  734DIO    H2041104   4.185   6.469  10.174
  735DIO     F141105   3.007   4.108   7.246
  735DIO     C141106   2.929   4.113   7.136
  735DIO     C241107   2.785   4.104   7.150
  735DIO     C341108   2.696   4.106   7.032
  735DIO     C441109   2.762   4.121   6.900
  735DIO     C541110   2.906   4.130   6.888
  735DIO     F241111   2.961   4.148   6.767
  735DIO     C641112   2.990   4.127   7.006
  735DIO     F341113   3.123   4.134   6.994
  735DIO     C741114   2.550   4.096   7.044
  735DIO     C841115   2.473   3.999   6.963
  735DIO     C941116   2.328   3.989   6.974
  735DIO    C1041117   2.255   4.082   7.059
  735DIO    C1141118   2.328   4.173   7.146
  735DIO    C1241119   2.472   4.181   7.136
  735DIO     F441120   2.537   4.271   7.213
  735DIO     O141121   2.123   4.051   7.084
  735DIO    C1341122   2.029   4.152   7.100
  735DIO     O241123   2.028   4.274   7.069
  735DIO    C1441124   1.899   4.102   7.148
  735DIO    C1541125   1.833   3.985   7.085
  735DIO     F541126   1.896   3.917   6.987
  735DIO    C1641127   1.702   3.938   7.126
  735DIO    C1741128   1.627   4.009   7.228
  735DIO    C1841129   1.695   4.113   7.304
  735DIO    C1941130   1.827   4.159   7.263
  735DIO     F641131   1.889   4.246   7.346
  735DIO    C2041132   1.486   3.968   7.264
  735DIO     O341133   1.416   3.901   7.158
  735DIO    C2141134   1.372   3.991   7.057
  735DIO    C2241135   1.284   4.100   7.115
  735DIO    C2341136   1.364   4.169   7.225
  735DIO     O441137   1.409   4.074   7.322
  735DIO    C2441138   1.151   4.046   7.173
  735DIO    C2541139   1.060   3.973   7.073
  735DIO    C2641140   1.022   4.055   6.952
  735DIO     H141141   2.742   4.094   7.249
  735DIO     H241142   2.701   4.134   6.811
  735DIO     H341143   2.524   3.930   6.897
  735DIO     H441144   2.273   3.913   6.922
  735DIO     H541145   2.273   4.238   7.213
  735DIO     H641146   1.664   3.847   7.081
  735DIO     H741147   1.652   4.154   7.394
  735DIO     H841148   1.496   3.893   7.344
  735DIO     H941149   1.459   4.035   7.006
  735DIO    H1041150   1.320   3.933   6.981
  735DIO    H1141151   1.261   4.174   7.037
  735DIO    H1241152   1.303   4.243   7.278
  735DIO    H1341153   1.450   4.222   7.183
  735DIO    H1441154   1.171   3.979   7.257
  735DIO    H1541155   1.094   4.131   7.214
  735DIO    H1641156   1.107   3.879   7.041
  735DIO    H1741157   0.968   3.943   7.126
  735DIO    H1841158   0.978   4.151   6.981
  735DIO    H1941159   1.108   4.075   6.888
  735DIO    H2041160   0.948   4.001   6.892
  736DIO     F141161   4.564   0.308   8.558
  736DIO     C141162   4.487   0.234   8.640
  736DIO     C241163   4.342   0.250   8.635
  736DIO     C341164   4.254   0.173   8.724
  736DIO     C441165   4.319   0.077   8.816
  736DIO     C541166   4.463   0.062   8.819
  736DIO     F241167   4.519  -0.029   8.901
  736DIO     C641168   4.547   0.140   8.731
  736DIO     F341169   4.681   0.127   8.736
  736DIO     C741170   4.107   0.188   8.721
  736DIO     C841171   4.030   0.211   8.845
  736DIO     C941172   3.885   0.226   8.843
  736DIO    C1041173   3.813   0.209   8.718
  736DIO    C1141174   3.885   0.194   8.593
  736DIO    C1241175   4.029   0.182   8.596
  736DIO     F441176   4.094   0.162   8.479
  736DIO     O141177   3.681   0.248   8.719
  736DIO    C1341178   3.586   0.181   8.642
  736DIO     O241179   3.585   0.067   8.588
  736DIO    C1441180   3.457   0.250   8.638
  736DIO    C1541181   3.391   0.300   8.760
  736DIO     F541182   3.453   0.290   8.880
  736DIO    C1641183   3.260   0.362   8.759
  736DIO    C1741184   3.184   0.373   8.635
  736DIO    C1841185   3.253   0.341   8.510
  736DIO    C1941186   3.385   0.280   8.512
  736DIO     F641187   3.447   0.266   8.393
  736DIO    C2041188   3.043   0.428   8.633
  736DIO     O341189   2.974   0.411   8.757
  736DIO    C2141190   2.930   0.277   8.778
  736DIO    C2241191   2.841   0.230   8.664
  736DIO    C2341192   2.922   0.248   8.535
  736DIO     O441193   2.966   0.383   8.522
  736DIO    C2441194   2.708   0.309   8.654
  736DIO    C2541195   2.618   0.302   8.777
  736DIO    C2641196   2.579   0.161   8.818
  736DIO     H141197   4.300   0.321   8.564
  736DIO     H241198   4.259   0.010   8.876
  736DIO     H341199   4.082   0.222   8.940
  736DIO     H441200   3.830   0.251   8.932
  736DIO     H541201   3.831   0.187   8.500
  736DIO     H641202   3.222   0.404   8.852
  736DIO     H741203   3.210   0.368   8.415
  736DIO     H841204   3.053   0.536   8.620
  736DIO     H941205   3.017   0.211   8.789
  736DIO    H1041206   2.877   0.274   8.874
  736DIO    H1141207   2.819   0.124   8.676
  736DIO    H1241208   2.861   0.225   8.447
  736DIO    H1341209   3.008   0.181   8.533
  736DIO    H1441210   2.728   0.414   8.632
  736DIO    H1541211   2.652   0.270   8.568
  736DIO    H1641212   2.665   0.353   8.862
  736DIO    H1741213   2.526   0.358   8.755
  736DIO    H1841214   2.535   0.106   8.734
  736DIO    H1941215   2.666   0.105   8.855
  736DIO    H2041216   2.506   0.164   8.899
  737DIO     F141217   4.802   9.098   2.300
  737DIO     C141218   4.725   9.028   2.385
  737DIO     C241219   4.581   9.044   2.379
  737DIO     C341220   4.492   8.970   2.472
  737DIO     C441221   4.557   8.878   2.568
  737DIO     C541222   4.702   8.864   2.571
  737DIO     F241223   4.757   8.776   2.657
  737DIO     C641224   4.785   8.938   2.480
  737DIO     F341225   4.919   8.925   2.485
  737DIO     C741226   4.345   8.986   2.468
  737DIO     C841227   4.268   9.014   2.591
  737DIO     C941228   4.124   9.029   2.588
  737DIO    C1041229   4.051   9.006   2.464
  737DIO    C1141230   4.124   8.986   2.340
  737DIO    C1241231   4.268   8.973   2.343
  737DIO     F441232   4.333   8.949   2.227
  737DIO     O141233   3.919   9.045   2.463
  737DIO    C1341234   3.824   8.975   2.389
  737DIO     O241235   3.823   8.859   2.340
  737DIO    C1441236   3.695   9.044   2.382
  737DIO    C1541237   3.629   9.098   2.503
  737DIO     F541238   3.692   9.093   2.622
  737DIO    C1641239   3.498   9.161   2.499
  737DIO    C1741240   3.422   9.166   2.374
  737DIO    C1841241   3.491   9.129   2.251
  737DIO    C1941242   3.623   9.068   2.255
  737DIO     F641243   3.685   9.049   2.137
  737DIO    C2041244   3.282   9.221   2.370
  737DIO     O341245   3.212   9.210   2.495
  737DIO    C2141246   3.168   9.077   2.521
  737DIO    C2241247   3.079   9.025   2.409
  737DIO    C2341248   3.160   9.037   2.280
  737DIO     O441249   3.204   9.171   2.260
  737DIO    C2441250   2.947   9.103   2.396
  737DIO    C2541251   2.856   9.102   2.519
  737DIO    C2641252   2.817   8.962   2.566
  737DIO     H141253   4.538   9.111   2.306
  737DIO     H241254   4.497   8.814   2.631
  737DIO     H341255   4.320   9.029   2.685
  737DIO     H441256   4.069   9.057   2.676
  737DIO     H541257   4.069   8.974   2.247
  737DIO     H641258   3.460   9.207   2.589
  737DIO     H741259   3.448   9.151   2.154
  737DIO     H841260   3.291   9.329   2.353
  737DIO     H941261   3.255   9.011   2.535
  737DIO    H1041262   3.115   9.077   2.617
  737DIO    H1141263   3.057   8.919   2.426
  737DIO    H1241264   3.099   9.010   2.193
  737DIO    H1341265   3.246   8.969   2.281
  737DIO    H1441266   2.966   9.207   2.370
  737DIO    H1541267   2.890   9.061   2.311
  737DIO    H1641268   2.903   9.156   2.602
  737DIO    H1741269   2.764   9.157   2.495
  737DIO    H1841270   2.774   8.904   2.484
  737DIO    H1941271   2.904   8.908   2.605
  737DIO    H2041272   2.744   8.969   2.647
  738DIO     F141273   5.927   2.174   7.049
  738DIO     C141274   5.850   2.118   7.143
  738DIO     C241275   5.706   2.133   7.135
  738DIO     C341276   5.617   2.075   7.238
  738DIO     C441277   5.682   2.000   7.348
  738DIO     C541278   5.827   1.986   7.354
  738DIO     F241279   5.882   1.913   7.453
  738DIO     C641280   5.910   2.045   7.252
  738DIO     F341281   6.044   2.032   7.259
  738DIO     C741282   5.470   2.090   7.232
  738DIO     C841283   5.393   2.137   7.349
  738DIO     C941284   5.249   2.151   7.344
  738DIO    C1041285   5.176   2.109   7.226
  738DIO    C1141286   5.249   2.069   7.106
  738DIO    C1241287   5.393   2.058   7.111
  738DIO     F441288   5.458   2.015   7.001
  738DIO     O141289   5.044   2.148   7.218
  738DIO    C1341290   4.949   2.066   7.156
  738DIO     O241291   4.948   1.944   7.126
  738DIO    C1441292   4.820   2.133   7.138
  738DIO    C1541293   4.754   2.206   7.248
  738DIO     F541294   4.817   2.221   7.367
  738DIO    C1641295   4.623   2.268   7.234
  738DIO    C1741296   4.547   2.253   7.110
  738DIO    C1841297   4.616   2.196   6.995
  738DIO    C1941298   4.748   2.136   7.009
  738DIO     F641299   4.810   2.099   6.895
  738DIO    C2041300   4.407   2.306   7.098
  738DIO     O341301   4.337   2.315   7.223
  738DIO    C2141302   4.293   2.188   7.270
  738DIO    C2241303   4.204   2.119   7.168
  738DIO    C2341304   4.285   2.111   7.038
  738DIO     O441305   4.329   2.240   6.997
  738DIO    C2441306   4.072   2.194   7.142
  738DIO    C2541307   3.981   2.212   7.264
  738DIO    C2641308   3.942   2.082   7.333
  738DIO     H141309   5.663   2.188   7.052
  738DIO     H241310   5.622   1.947   7.421
  738DIO     H341311   5.445   2.167   7.440
  738DIO     H441312   5.194   2.194   7.426
  738DIO     H541313   5.194   2.043   7.016
  738DIO     H641314   4.585   2.327   7.316
  738DIO     H741315   4.573   2.203   6.896
  738DIO     H841316   4.416   2.410   7.063
  738DIO     H941317   4.380   2.126   7.294
  738DIO    H1041318   4.240   2.204   7.365
  738DIO    H1141319   4.182   2.017   7.201
  738DIO    H1241320   4.224   2.069   6.957
  738DIO    H1341321   4.371   2.044   7.050
  738DIO    H1441322   4.091   2.293   7.099
  738DIO    H1541323   4.015   2.139   7.066
  738DIO    H1641324   4.028   2.280   7.337
  738DIO    H1741325   3.889   2.263   7.231
  738DIO    H1841326   3.899   2.012   7.262
  738DIO    H1941327   4.029   2.035   7.380
  738DIO    H2041328   3.869   2.102   7.411
  739DIO     F141329   9.408   4.704   7.431
  739DIO     C141330   9.330   4.666   7.534
  739DIO     C241331   9.186   4.679   7.523
  739DIO     C341332   9.098   4.640   7.635
  739DIO     C441333   9.163   4.585   7.756
  739DIO     C541334   9.307   4.573   7.764
  739DIO     F241335   9.363   4.519   7.875
  739DIO     C641336   9.391   4.613   7.654
  739DIO     F341337   9.525   4.602   7.663
  739DIO     C741338   8.951   4.654   7.626
  739DIO     C841339   8.874   4.721   7.733
  739DIO     C941340   8.729   4.734   7.725
  739DIO    C1041341   8.657   4.672   7.616
  739DIO    C1141342   8.729   4.611   7.506
  739DIO    C1241343   8.873   4.601   7.513
  739DIO     F441344   8.938   4.539   7.412
  739DIO     O141345   8.525   4.708   7.602
  739DIO    C1341346   8.430   4.617   7.556
  739DIO     O241347   8.429   4.491   7.548
  739DIO    C1441348   8.301   4.680   7.526
  739DIO    C1541349   8.235   4.771   7.621
  739DIO     F541350   8.297   4.807   7.736
  739DIO    C1641351   8.104   4.829   7.597
  739DIO    C1741352   8.028   4.793   7.478
  739DIO    C1841353   8.097   4.716   7.374
  739DIO    C1941354   8.228   4.660   7.398
  739DIO     F641355   8.291   4.603   7.293
  739DIO    C2041356   7.887   4.843   7.456
  739DIO     O341357   7.818   4.874   7.577
  739DIO    C2141358   7.774   4.757   7.646
  739DIO    C2241359   7.685   4.671   7.557
  739DIO    C2341360   7.766   4.640   7.431
  739DIO     O441361   7.810   4.760   7.369
  739DIO    C2441362   7.552   4.740   7.519
  739DIO    C2541363   7.462   4.780   7.636
  739DIO    C2641364   7.423   4.664   7.727
  739DIO     H141365   9.144   4.718   7.431
  739DIO     H241366   9.102   4.546   7.837
  739DIO     H341367   8.926   4.767   7.817
  739DIO     H441368   8.674   4.791   7.799
  739DIO     H541369   8.675   4.569   7.422
  739DIO     H641370   8.066   4.902   7.667
  739DIO     H741371   8.054   4.705   7.275
  739DIO     H841372   7.897   4.939   7.403
  739DIO     H941373   7.861   4.700   7.681
  739DIO    H1041374   7.721   4.790   7.736
  739DIO    H1141375   7.663   4.577   7.609
  739DIO    H1241376   7.705   4.585   7.359
  739DIO    H1341377   7.852   4.576   7.455
  739DIO    H1441378   7.572   4.830   7.459
  739DIO    H1541379   7.496   4.672   7.454
  739DIO    H1641380   7.509   4.859   7.695
  739DIO    H1741381   7.370   4.824   7.595
  739DIO    H1841382   7.379   4.582   7.669
  739DIO    H1941383   7.510   4.626   7.781
  739DIO    H2041384   7.350   4.697   7.800
  740DIO     F141385   8.794   5.880   4.861
  740DIO     C141386   8.716   5.775   4.828
  740DIO     C241387   8.572   5.787   4.841
  740DIO     C341388   8.483   5.673   4.807
  740DIO     C441389   8.549   5.549   4.759
  740DIO     C541390   8.693   5.541   4.747
  740DIO     F241391   8.748   5.428   4.698
  740DIO     C641392   8.777   5.653   4.781
  740DIO     F341393   8.910   5.643   4.771
  740DIO     C741394   8.337   5.682   4.821
  740DIO     C841395   8.260   5.579   4.893
  740DIO     C941396   8.115   5.587   4.906
  740DIO    C1041397   8.042   5.693   4.838
  740DIO    C1141398   8.115   5.801   4.772
  740DIO    C1241399   8.259   5.793   4.762
  740DIO     F441400   8.324   5.891   4.696
  740DIO     O141401   7.910   5.709   4.874
  740DIO    C1341402   7.816   5.751   4.781
  740DIO     O241403   7.815   5.753   4.655
  740DIO    C1441404   7.686   5.784   4.842
  740DIO    C1541405   7.620   5.693   4.938
  740DIO     F541406   7.683   5.580   4.979
  740DIO    C1641407   7.489   5.720   4.994
  740DIO    C1741408   7.414   5.838   4.952
  740DIO    C1841409   7.482   5.937   4.871
  740DIO    C1941410   7.614   5.910   4.816
  740DIO     F641411   7.676   6.013   4.754
  740DIO    C2041412   7.273   5.862   5.002
  740DIO     O341413   7.203   5.742   5.038
  740DIO    C2141414   7.159   5.667   4.925
  740DIO    C2241415   7.071   5.752   4.835
  740DIO    C2341416   7.151   5.876   4.797
  740DIO     O441417   7.196   5.945   4.914
  740DIO    C2441418   6.938   5.794   4.902
  740DIO    C2541419   6.847   5.679   4.947
  740DIO    C2641420   6.809   5.583   4.836
  740DIO     H141421   8.529   5.880   4.875
  740DIO     H241422   8.488   5.467   4.723
  740DIO     H341423   8.311   5.498   4.943
  740DIO     H441424   8.060   5.517   4.966
  740DIO     H541425   8.060   5.882   4.727
  740DIO     H641426   7.451   5.654   5.071
  740DIO     H741427   7.439   6.036   4.855
  740DIO     H841428   7.283   5.919   5.095
  740DIO     H941429   7.246   5.630   4.870
  740DIO    H1041430   7.107   5.579   4.962
  740DIO    H1141431   7.048   5.696   4.743
  740DIO    H1241432   7.090   5.946   4.739
  740DIO    H1341433   7.237   5.850   4.735
  740DIO    H1441434   6.958   5.857   4.989
  740DIO    H1541435   6.881   5.856   4.831
  740DIO    H1641436   6.894   5.623   5.029
  740DIO    H1741437   6.755   5.722   4.989
  740DIO    H1841438   6.765   5.636   4.751
  740DIO    H1941439   6.895   5.526   4.800
  740DIO    H2041440   6.735   5.511   4.873
  741DIO     F141441   6.633   9.511   9.787
  741DIO     C141442   6.555   9.586   9.706
  741DIO     C241443   6.411   9.570   9.711
  741DIO     C341444   6.323   9.649   9.623
  741DIO     C441445   6.388   9.746   9.532
  741DIO     C541446   6.532   9.761   9.530
  741DIO     F241447   6.588   9.853   9.449
  741DIO     C641448   6.616   9.681   9.616
  741DIO     F341449   6.750   9.695   9.612
  741DIO     C741450   6.176   9.633   9.626
  741DIO     C841451   6.099   9.612   9.501
  741DIO     C941452   5.954   9.597   9.503
  741DIO    C1041453   5.882   9.613   9.628
  741DIO    C1141454   5.954   9.626   9.753
  741DIO    C1241455   6.098   9.638   9.751
  741DIO     F441456   6.163   9.656   9.868
  741DIO     O141457   5.750   9.574   9.627
  741DIO    C1341458   5.655   9.640   9.705
  741DIO     O241459   5.654   9.752   9.761
  741DIO    C1441460   5.526   9.570   9.708
  741DIO    C1541461   5.460   9.523   9.585
  741DIO     F541462   5.522   9.534   9.466
  741DIO    C1641463   5.329   9.460   9.585
  741DIO    C1741464   5.253   9.447   9.709
  741DIO    C1841465   5.322   9.477   9.834
  741DIO    C1941466   5.453   9.539   9.833
  741DIO     F641467   5.516   9.551   9.953
  741DIO    C2041468   5.112   9.393   9.710
  741DIO     O341469   5.043   9.411   9.586
  741DIO    C2141470   4.999   9.545   9.567
  741DIO    C2241471   4.910   9.590   9.682
  741DIO    C2341472   4.991   9.571   9.811
  741DIO     O441473   5.035   9.436   9.822
  741DIO    C2441474   4.777   9.512   9.691
  741DIO    C2541475   4.687   9.520   9.568
  741DIO    C2641476   4.648   9.662   9.529
  741DIO     H141477   6.369   9.498   9.781
  741DIO     H241478   6.327   9.814   9.473
  741DIO     H341479   6.151   9.603   9.406
  741DIO     H441480   5.899   9.574   9.413
  741DIO     H541481   5.900   9.632   9.846
  741DIO     H641482   5.291   9.420   9.492
  741DIO     H741483   5.279   9.449   9.929
  741DIO     H841484   5.122   9.284   9.721
  741DIO     H941485   5.086   9.611   9.557
  741DIO    H1041486   4.946   9.550   9.471
  741DIO    H1141487   4.888   9.697   9.671
  741DIO    H1241488   4.930   9.593   9.899
  741DIO    H1341489   5.077   9.638   9.814
  741DIO    H1441490   4.797   9.406   9.711
  741DIO    H1541491   4.721   9.549   9.778
  741DIO    H1641492   4.734   9.471   9.482
  741DIO    H1741493   4.595   9.464   9.589
  741DIO    H1841494   4.604   9.716   9.614
  741DIO    H1941495   4.735   9.719   9.493
  741DIO    H2041496   4.575   9.660   9.448
  742DIO     F141497  10.599  10.008   9.688
  742DIO     C141498  10.521  10.069   9.779
  742DIO     C241499  10.377  10.068   9.762
  742DIO     C341500  10.288  10.136   9.859
  742DIO     C441501  10.354  10.203   9.974
  742DIO     C541502  10.498  10.203   9.989
  742DIO     F241503  10.554  10.261  10.097
  742DIO     C641504  10.582  10.136   9.892
  742DIO     F341505  10.716  10.137   9.906
  742DIO     C741506  10.142  10.137   9.843
  742DIO     C841507  10.065  10.264   9.850
  742DIO     C941508   9.920  10.265   9.835
  742DIO    C1041509   9.848  10.140   9.822
  742DIO    C1141510   9.920  10.015   9.807
  742DIO    C1241511  10.064  10.014   9.820
  742DIO     F441512  10.129   9.896   9.811
  742DIO     O141513   9.715  10.149   9.784
  742DIO    C1341514   9.621  10.059   9.831
  742DIO     O241515   9.620   9.979   9.929
  742DIO    C1441516   9.492  10.071   9.763
  742DIO    C1541517   9.426  10.202   9.744
  742DIO     F541518   9.488  10.315   9.782
  742DIO    C1641519   9.295  10.216   9.683
  742DIO    C1741520   9.219  10.098   9.643
  742DIO    C1841521   9.288   9.969   9.645
  742DIO    C1941522   9.419   9.956   9.705
  742DIO     F641523   9.482   9.837   9.689
  742DIO    C2041524   9.078  10.109   9.589
  742DIO     O341525   9.009  10.226   9.635
  742DIO    C2141526   8.965  10.214   9.770
  742DIO    C2241527   8.876  10.091   9.788
  742DIO    C2341528   8.957   9.971   9.740
  742DIO     O441529   9.001   9.990   9.606
  742DIO    C2441530   8.743  10.101   9.710
  742DIO    C2541531   8.653  10.219   9.746
  742DIO    C2641532   8.614  10.225   9.893
  742DIO     H141533  10.335  10.016   9.677
  742DIO     H241534  10.293  10.246  10.053
  742DIO     H341535  10.116  10.358   9.862
  742DIO     H441536   9.865  10.358   9.832
  742DIO     H541537   9.866   9.922   9.792
  742DIO     H641538   9.257  10.315   9.664
  742DIO     H741539   9.245   9.882   9.596
  742DIO     H841540   9.088  10.122   9.481
  742DIO     H941541   9.052  10.209   9.837
  742DIO    H1041542   8.912  10.306   9.796
  742DIO    H1141543   8.853  10.078   9.895
  742DIO    H1241544   8.896   9.880   9.743
  742DIO    H1341545   9.043   9.953   9.806
  742DIO    H1441546   8.763  10.105   9.602
  742DIO    H1541547   8.687  10.008   9.727
  742DIO    H1641548   8.700  10.313   9.716
  742DIO    H1741549   8.561  10.211   9.686
  742DIO    H1841550   8.570  10.130   9.926
  742DIO    H1941551   8.701  10.247   9.956
  742DIO    H2041552   8.540  10.304   9.909
  743DIO     F141553  10.507   4.682   6.854
  743DIO     C141554  10.430   4.752   6.938
  743DIO     C241555  10.286   4.750   6.922
  743DIO     C341556  10.197   4.827   7.011
  743DIO     C441557  10.262   4.905   7.119
  743DIO     C541558  10.407   4.906   7.134
  743DIO     F241559  10.462   4.975   7.235
  743DIO     C641560  10.490   4.830   7.044
  743DIO     F341561  10.624   4.832   7.058
  743DIO     C741562  10.051   4.827   6.995
  743DIO     C841563   9.973   4.953   6.990
  743DIO     C941564   9.829   4.953   6.975
  743DIO    C1041565   9.756   4.827   6.974
  743DIO    C1141566   9.829   4.701   6.972
  743DIO    C1241567   9.973   4.702   6.984
  743DIO     F441568  10.038   4.584   6.987
  743DIO     O141569   9.624   4.833   6.936
  743DIO    C1341570   9.529   4.747   6.992
  743DIO     O241571   9.529   4.678   7.097
  743DIO    C1441572   9.400   4.753   6.922
  743DIO    C1541573   9.334   4.881   6.891
  743DIO     F541574   9.397   4.998   6.917
  743DIO    C1641575   9.203   4.889   6.828
  743DIO    C1741576   9.127   4.767   6.800
  743DIO    C1841577   9.196   4.639   6.815
  743DIO    C1941578   9.328   4.632   6.876
  743DIO     F641579   9.390   4.513   6.872
  743DIO    C2041580   8.987   4.773   6.746
  743DIO     O341581   8.917   4.894   6.780
  743DIO    C2141582   8.873   4.896   6.915
  743DIO    C2241583   8.784   4.776   6.946
  743DIO    C2341584   8.865   4.651   6.910
  743DIO     O441585   8.909   4.656   6.775
  743DIO    C2441586   8.652   4.777   6.867
  743DIO    C2541587   8.561   4.898   6.890
  743DIO    C2641588   8.523   4.919   7.036
  743DIO     H141589  10.243   4.690   6.842
  743DIO     H241590  10.202   4.956   7.193
  743DIO     H341591  10.025   5.048   6.992
  743DIO     H441592   9.774   5.045   6.962
  743DIO     H541593   9.774   4.608   6.966
  743DIO     H641594   9.165   4.986   6.800
  743DIO     H741595   9.153   4.548   6.775
  743DIO     H841596   8.996   4.776   6.637
  743DIO     H941597   8.960   4.897   6.982
  743DIO    H1041598   8.821   4.990   6.932
  743DIO    H1141599   8.762   4.773   7.053
  743DIO    H1241600   8.804   4.561   6.921
  743DIO    H1341601   8.951   4.640   6.977
  743DIO    H1441602   8.672   4.770   6.759
  743DIO    H1541603   8.595   4.686   6.893
  743DIO    H1641604   8.608   4.989   6.852
  743DIO    H1741605   8.469   4.884   6.832
  743DIO    H1841606   8.479   4.828   7.079
  743DIO    H1941607   8.609   4.947   7.097
  743DIO    H2041608   8.449   4.999   7.044
  744DIO     F141609   1.418   5.658   4.342
  744DIO     C141610   1.340   5.758   4.298
  744DIO     C241611   1.196   5.742   4.296
  744DIO     C341612   1.107   5.849   4.245
  744DIO     C441613   1.173   5.974   4.200
  744DIO     C541614   1.317   5.988   4.203
  744DIO     F241615   1.372   6.105   4.164
  744DIO     C641616   1.401   5.881   4.252
  744DIO     F341617   1.535   5.895   4.253
  744DIO     C741618   0.961   5.833   4.242
  744DIO     C841619   0.884   5.862   4.119
  744DIO     C941620   0.739   5.848   4.115
  744DIO    C1041621   0.666   5.813   4.236
  744DIO    C1141622   0.739   5.777   4.356
  744DIO    C1241623   0.883   5.789   4.359
  744DIO     F441624   0.948   5.760   4.474
  744DIO     O141625   0.534   5.778   4.220
  744DIO    C1341626   0.440   5.808   4.317
  744DIO     O241627   0.439   5.890   4.413
  744DIO    C1441628   0.311   5.743   4.293
  744DIO    C1541629   0.244   5.747   4.161
  744DIO     F541630   0.307   5.804   4.056
  744DIO    C1641631   0.114   5.689   4.137
  744DIO    C1741632   0.038   5.629   4.246
  744DIO    C1841633   0.107   5.609   4.373
  744DIO    C1941634   0.238   5.665   4.396
  744DIO     F641635   0.301   5.630   4.511
  744DIO    C2041636  -0.103   5.579   4.225
  744DIO     O341637  -0.173   5.644   4.119
  744DIO    C2141638  -0.216   5.775   4.153
  744DIO    C2241639  -0.305   5.772   4.277
  744DIO    C2341640  -0.224   5.703   4.388
  744DIO     O441641  -0.180   5.575   4.346
  744DIO    C2441642  -0.438   5.696   4.255
  744DIO    C2541643  -0.529   5.752   4.145
  744DIO    C2641644  -0.567   5.897   4.164
  744DIO     H141645   1.153   5.649   4.332
  744DIO     H241646   1.112   6.059   4.171
  744DIO     H341647   0.935   5.890   4.028
  744DIO     H441648   0.684   5.861   4.023
  744DIO     H541649   0.685   5.746   4.444
  744DIO     H641650   0.075   5.688   4.035
  744DIO     H741651   0.064   5.546   4.450
  744DIO     H841652  -0.093   5.474   4.194
  744DIO     H941653  -0.130   5.840   4.170
  744DIO    H1041654  -0.269   5.817   4.067
  744DIO    H1141655  -0.328   5.874   4.309
  744DIO    H1241656  -0.286   5.690   4.478
  744DIO    H1341657  -0.138   5.765   4.417
  744DIO    H1441658  -0.418   5.590   4.232
  744DIO    H1541659  -0.494   5.697   4.349
  744DIO    H1641660  -0.481   5.739   4.046
  744DIO    H1741661  -0.620   5.691   4.142
  744DIO    H1841662  -0.611   5.914   4.263
  744DIO    H1941663  -0.481   5.963   4.153
  744DIO    H2041664  -0.641   5.927   4.089
  745DIO     F141665   5.584  10.715   4.343
  745DIO     C141666   5.506  10.661   4.247
  745DIO     C241667   5.362  10.660   4.264
  745DIO     C341668   5.273  10.600   4.162
  745DIO     C441669   5.339  10.544   4.042
  745DIO     C541670   5.483  10.545   4.027
  745DIO     F241671   5.539  10.496   3.914
  745DIO     C641672   5.567  10.604   4.129
  745DIO     F341673   5.701  10.604   4.115
  745DIO     C741674   5.127  10.598   4.178
  745DIO     C841675   5.050  10.473   4.160
  745DIO     C941676   4.905  10.471   4.175
  745DIO    C1041677   4.833  10.594   4.198
  745DIO    C1141678   4.905  10.717   4.223
  745DIO    C1241679   5.049  10.719   4.211
  745DIO     F441680   5.114  10.836   4.230
  745DIO     O141681   4.700  10.581   4.235
  745DIO    C1341682   4.606  10.676   4.196
  745DIO     O241683   4.605  10.763   4.105
  745DIO    C1441684   4.477  10.658   4.263
  745DIO    C1541685   4.410  10.526   4.270
  745DIO     F541686   4.473  10.416   4.223
  745DIO    C1641687   4.280  10.507   4.330
  745DIO    C1741688   4.204  10.621   4.380
  745DIO    C1841689   4.273  10.750   4.389
  745DIO    C1941690   4.404  10.768   4.330
  745DIO     F641691   4.467  10.885   4.355
  745DIO    C2041692   4.063  10.605   4.432
  745DIO     O341693   3.993  10.493   4.377
  745DIO    C2141694   3.950  10.516   4.244
  745DIO    C2241695   3.861  10.639   4.236
  745DIO    C2341696   3.942  10.756   4.293
  745DIO     O441697   3.986  10.726   4.426
  745DIO    C2441698   3.728  10.624   4.313
  745DIO    C2541699   3.637  10.509   4.268
  745DIO    C2641700   3.599  10.515   4.121
  745DIO     H141701   5.320  10.705   4.353
  745DIO     H241702   5.278  10.507   3.959
  745DIO     H341703   5.101  10.380   4.140
  745DIO     H441704   4.850  10.378   4.170
  745DIO     H541705   4.851  10.808   4.246
  745DIO     H641706   4.242  10.406   4.341
  745DIO     H741707   4.230  10.832   4.445
  745DIO     H841708   4.073  10.583   4.539
  745DIO     H941709   4.036  10.526   4.178
  745DIO    H1041710   3.897  10.426   4.210
  745DIO    H1141711   3.838  10.661   4.131
  745DIO    H1241712   3.881  10.846   4.299
  745DIO    H1341713   4.028  10.779   4.230
  745DIO    H1441714   3.748  10.611   4.420
  745DIO    H1541715   3.672  10.717   4.304
  745DIO    H1641716   3.685  10.412   4.289
  745DIO    H1741717   3.546  10.512   4.328
  745DIO    H1841718   3.555  10.612   4.095
  745DIO    H1941719   3.686  10.498   4.056
  745DIO    H2041720   3.525  10.437   4.098
  746DIO     F141721   2.400  10.128   6.209
  746DIO     C141722   2.323  10.134   6.319
  746DIO     C241723   2.178  10.142   6.304
  746DIO     C341724   2.090  10.152   6.422
  746DIO     C441725   2.155  10.151   6.555
  746DIO     C541726   2.299  10.143   6.567
  746DIO     F241727   2.355  10.138   6.690
  746DIO     C641728   2.383  10.134   6.450
  746DIO     F341729   2.517  10.128   6.463
  746DIO     C741730   1.943  10.161   6.408
  746DIO     C841731   1.866  10.266   6.479
  746DIO     C941732   1.721  10.274   6.466
  746DIO    C1041733   1.649  10.173   6.392
  746DIO    C1141734   1.721  10.073   6.315
  746DIO    C1241735   1.865  10.066   6.326
  746DIO     F441736   1.930   9.969   6.258
  746DIO     O141737   1.517  10.201   6.364
  746DIO    C1341738   1.422  10.099   6.359
  746DIO     O241739   1.421   9.981   6.402
  746DIO    C1441740   1.293  10.144   6.306
  746DIO    C1541741   1.227  10.266   6.356
  746DIO     F541742   1.289  10.345   6.446
  746DIO    C1641743   1.096  10.309   6.310
  746DIO    C1741744   1.020  10.228   6.216
  746DIO    C1841745   1.089  10.116   6.152
  746DIO    C1941746   1.221  10.074   6.197
  746DIO     F641747   1.283   9.980   6.124
  746DIO    C2041748   0.879  10.265   6.176
  746DIO     O341749   0.810  10.342   6.274
  746DIO    C2141750   0.766  10.264   6.385
  746DIO    C2241751   0.677  10.149   6.338
  746DIO    C2341752   0.758  10.069   6.236
  746DIO     O441753   0.802  10.153   6.130
  746DIO    C2441754   0.544  10.196   6.275
  746DIO    C2541755   0.454  10.280   6.366
  746DIO    C2641756   0.415  10.211   6.496
  746DIO     H141757   2.136  10.141   6.204
  746DIO     H241758   2.095  10.148   6.645
  746DIO     H341759   1.918  10.341   6.537
  746DIO     H441760   1.666  10.356   6.511
  746DIO     H541761   1.667  10.001   6.256
  746DIO     H641762   1.058  10.405   6.345
  746DIO     H741763   1.046  10.066   6.066
  746DIO     H841764   0.889  10.331   6.089
  746DIO     H941765   0.853  10.226   6.440
  746DIO    H1041766   0.713  10.330   6.454
  746DIO    H1141767   0.655  10.084   6.423
  746DIO    H1241768   0.697   9.990   6.192
  746DIO    H1341769   0.844  10.020   6.283
  746DIO    H1441770   0.564  10.255   6.184
  746DIO    H1541771   0.488  10.108   6.243
  746DIO    H1641772   0.501  10.376   6.388
  746DIO    H1741773   0.362  10.304   6.310
  746DIO    H1841774   0.371  10.113   6.476
  746DIO    H1941775   0.502  10.198   6.561
  746DIO    H2041776   0.342  10.271   6.550
  747DIO     F141777   6.028  -0.760   7.632
  747DIO     C141778   5.951  -0.793   7.737
  747DIO     C241779   5.807  -0.781   7.726
  747DIO     C341780   5.718  -0.814   7.839
  747DIO     C441781   5.783  -0.864   7.963
  747DIO     C541782   5.928  -0.875   7.972
  747DIO     F241783   5.983  -0.925   8.084
  747DIO     C641784   6.011  -0.841   7.859
  747DIO     F341785   6.145  -0.851   7.869
  747DIO     C741786   5.571  -0.801   7.830
  747DIO     C841787   5.494  -0.729   7.934
  747DIO     C941788   5.350  -0.716   7.925
  747DIO    C1041789   5.277  -0.784   7.819
  747DIO    C1141790   5.350  -0.849   7.712
  747DIO    C1241791   5.494  -0.859   7.719
  747DIO     F441792   5.559  -0.925   7.621
  747DIO     O141793   5.145  -0.748   7.804
  747DIO    C1341794   5.050  -0.841   7.761
  747DIO     O241795   5.049  -0.967   7.759
  747DIO    C1441796   4.921  -0.779   7.729
  747DIO    C1541797   4.855  -0.684   7.820
  747DIO     F541798   4.918  -0.643   7.933
  747DIO    C1641799   4.724  -0.627   7.793
  747DIO    C1741800   4.648  -0.669   7.675
  747DIO    C1841801   4.717  -0.750   7.575
  747DIO    C1941802   4.849  -0.805   7.602
  747DIO     F641803   4.911  -0.866   7.499
  747DIO    C2041804   4.508  -0.620   7.651
  747DIO     O341805   4.438  -0.583   7.771
  747DIO    C2141806   4.394  -0.697   7.846
  747DIO    C2241807   4.305  -0.787   7.761
  747DIO    C2341808   4.386  -0.824   7.636
  747DIO     O441809   4.430  -0.707   7.568
  747DIO    C2441810   4.173  -0.720   7.719
  747DIO    C2541811   4.082  -0.674   7.834
  747DIO    C2641812   4.043  -0.786   7.930
  747DIO     H141813   5.764  -0.746   7.633
  747DIO     H241814   5.723  -0.899   8.046
  747DIO     H341815   5.546  -0.680   8.015
  747DIO     H441816   5.295  -0.656   7.997
  747DIO     H541817   5.295  -0.894   7.630
  747DIO     H641818   4.686  -0.551   7.860
  747DIO     H741819   4.674  -0.765   7.477
  747DIO     H841820   4.517  -0.526   7.595
  747DIO     H941821   4.481  -0.752   7.883
  747DIO    H1041822   4.341  -0.660   7.934
  747DIO    H1141823   4.283  -0.879   7.816
  747DIO    H1241824   4.325  -0.882   7.566
  747DIO    H1341825   4.472  -0.886   7.663
  747DIO    H1441826   4.192  -0.632   7.656
  747DIO    H1541827   4.116  -0.790   7.657
  747DIO    H1641828   4.129  -0.593   7.890
  747DIO    H1741829   3.990  -0.632   7.791
  747DIO    H1841830   4.000  -0.871   7.876
  747DIO    H1941831   4.130  -0.822   7.986
  747DIO    H2041832   3.970  -0.750   8.002
  748DIO     F141833   1.483  10.273   0.251
  748DIO     C141834   1.406  10.206   0.164
  748DIO     C241835   1.262  10.208   0.180
  748DIO     C341836   1.173  10.134   0.088
  748DIO     C441837   1.238  10.061  -0.023
  748DIO     C541838   1.383  10.060  -0.038
  748DIO     F241839   1.438   9.996  -0.142
  748DIO     C641840   1.466  10.133   0.055
  748DIO     F341841   1.600  10.131   0.041
  748DIO     C741842   1.026  10.134   0.104
  748DIO     C841843   0.949  10.008   0.104
  748DIO     C941844   0.805  10.007   0.119
  748DIO    C1041845   0.732  10.133   0.125
  748DIO    C1141846   0.805  10.259   0.132
  748DIO    C1241847   0.949  10.258   0.120
  748DIO     F441848   1.014  10.377   0.122
  748DIO     O141849   0.600  10.125   0.163
  748DIO    C1341850   0.505  10.213   0.111
  748DIO     O241851   0.504  10.287   0.009
  748DIO    C1441852   0.376  10.205   0.180
  748DIO    C1541853   0.310  10.075   0.206
  748DIO     F541854   0.373   9.960   0.175
  748DIO    C1641855   0.179  10.065   0.268
  748DIO    C1741856   0.103  10.186   0.301
  748DIO    C1841857   0.172  10.314   0.292
  748DIO    C1941858   0.304  10.323   0.231
  748DIO     F641859   0.366  10.443   0.239
  748DIO    C2041860  -0.037  10.177   0.355
  748DIO     O341861  -0.107  10.058   0.316
  748DIO    C2141862  -0.151  10.062   0.181
  748DIO    C2241863  -0.240  10.183   0.155
  748DIO    C2341864  -0.159  10.306   0.196
  748DIO     O441865  -0.115  10.295   0.331
  748DIO    C2441866  -0.372  10.179   0.234
  748DIO    C2541867  -0.463  10.058   0.206
  748DIO    C2641868  -0.502  10.044   0.059
  748DIO     H141869   1.219  10.265   0.262
  748DIO     H241870   1.178  10.013  -0.099
  748DIO     H341871   1.001   9.913   0.098
  748DIO     H441872   0.750   9.915   0.128
  748DIO     H541873   0.750  10.352   0.142
  748DIO     H641874   0.141   9.967   0.293
  748DIO     H741875   0.129  10.403   0.335
  748DIO     H841876  -0.028  10.171   0.464
  748DIO     H941877  -0.064  10.063   0.114
  748DIO    H1041878  -0.204   9.968   0.160
  748DIO    H1141879  -0.262  10.190   0.048
  748DIO    H1241880  -0.220  10.397   0.189
  748DIO    H1341881  -0.073  10.320   0.130
  748DIO    H1441882  -0.353  10.181   0.342
  748DIO    H1541883  -0.429  10.270   0.212
  748DIO    H1641884  -0.416   9.966   0.241
  748DIO    H1741885  -0.555  10.070   0.265
  748DIO    H1841886  -0.545  10.136   0.021
  748DIO    H1941887  -0.415  10.018  -0.002
  748DIO    H2041888  -0.575   9.964   0.048
  749DIO     F141889   2.326   4.719   7.074
  749DIO     C141890   2.249   4.704   7.183
  749DIO     C241891   2.105   4.714   7.170
  749DIO     C341892   2.016   4.700   7.287
  749DIO     C441893   2.081   4.673   7.417
  749DIO     C541894   2.226   4.662   7.428
  749DIO     F241895   2.281   4.633   7.547
  749DIO     C641896   2.309   4.677   7.311
  749DIO     F341897   2.443   4.669   7.322
  749DIO     C741898   1.870   4.712   7.276
  749DIO     C841899   1.792   4.800   7.366
  749DIO     C941900   1.648   4.811   7.355
  749DIO    C1041901   1.575   4.727   7.262
  749DIO    C1141902   1.648   4.645   7.167
  749DIO    C1241903   1.792   4.636   7.176
  749DIO     F441904   1.857   4.554   7.090
  749DIO     O141905   1.443   4.760   7.241
  749DIO    C1341906   1.348   4.661   7.215
  749DIO     O241907   1.348   4.536   7.234
  749DIO    C1441908   1.219   4.716   7.172
  749DIO    C1541909   1.153   4.826   7.246
  749DIO     F541910   1.216   4.885   7.350
  749DIO    C1641911   1.022   4.877   7.210
  749DIO    C1741912   0.946   4.816   7.101
  749DIO    C1841913   1.015   4.720   7.016
  749DIO    C1941914   1.147   4.670   7.052
  749DIO     F641915   1.209   4.592   6.961
  749DIO    C2041916   0.806   4.861   7.069
  749DIO     O341917   0.736   4.916   7.181
  749DIO    C2141918   0.692   4.817   7.273
  749DIO    C2241919   0.603   4.714   7.205
  749DIO    C2341920   0.684   4.657   7.088
  749DIO     O441921   0.728   4.761   7.001
  749DIO    C2441922   0.471   4.773   7.153
  749DIO    C2541923   0.380   4.837   7.258
  749DIO    C2641924   0.342   4.743   7.372
  749DIO     H141925   2.062   4.733   7.072
  749DIO     H241926   2.021   4.652   7.505
  749DIO     H341927   1.844   4.863   7.438
  749DIO     H441928   1.593   4.882   7.415
  749DIO     H541929   1.593   4.586   7.094
  749DIO     H641930   0.984   4.963   7.263
  749DIO     H741931   0.972   4.688   6.922
  749DIO     H841932   0.815   4.943   6.997
  749DIO     H941933   0.779   4.769   7.319
  749DIO    H1041934   0.640   4.868   7.354
  749DIO    H1141935   0.581   4.633   7.275
  749DIO    H1241936   0.623   4.588   7.029
  749DIO    H1341937   0.770   4.599   7.125
  749DIO    H1441938   0.491   4.849   7.075
  749DIO    H1541939   0.414   4.693   7.103
  749DIO    H1641940   0.427   4.927   7.300
  749DIO    H1741941   0.288   4.871   7.209
  749DIO    H1841942   0.298   4.651   7.333
  749DIO    H1941943   0.428   4.717   7.433
  749DIO    H2041944   0.268   4.791   7.437
  750DIO     F141945   5.643  -0.232   4.759
  750DIO     C141946   5.566  -0.212   4.651
  750DIO     C241947   5.422  -0.223   4.664
  750DIO     C341948   5.333  -0.203   4.547
  750DIO     C441949   5.398  -0.170   4.419
  750DIO     C541950   5.543  -0.159   4.409
  750DIO     F241951   5.598  -0.124   4.291
  750DIO     C641952   5.626  -0.179   4.524
  750DIO     F341953   5.760  -0.170   4.513
  750DIO     C741954   5.186  -0.215   4.558
  750DIO     C841955   5.109  -0.300   4.464
  750DIO     C941956   4.965  -0.311   4.474
  750DIO    C1041957   4.892  -0.231   4.571
  750DIO    C1141958   4.964  -0.153   4.670
  750DIO    C1241959   5.109  -0.144   4.661
  750DIO     F441960   5.173  -0.067   4.751
  750DIO     O141961   4.760  -0.265   4.591
  750DIO    C1341962   4.665  -0.167   4.621
  750DIO     O241963   4.664  -0.042   4.608
  750DIO    C1441964   4.536  -0.224   4.661
  750DIO    C1541965   4.470  -0.330   4.582
  750DIO     F541966   4.532  -0.384   4.476
  750DIO    C1641967   4.339  -0.383   4.616
  750DIO    C1741968   4.263  -0.328   4.728
  750DIO    C1841969   4.332  -0.235   4.817
  750DIO    C1941970   4.464  -0.184   4.784
  750DIO     F641971   4.526  -0.110   4.878
  750DIO    C2041972   4.123  -0.374   4.758
  750DIO     O341973   4.053  -0.424   4.643
  750DIO    C2141974   4.009  -0.321   4.555
  750DIO    C2241975   3.920  -0.221   4.629
  750DIO    C2341976   4.001  -0.169   4.748
  750DIO     O441977   4.045  -0.277   4.830
  750DIO    C2441978   3.787  -0.283   4.678
  750DIO    C2541979   3.697  -0.342   4.569
  750DIO    C2641980   3.658  -0.242   4.461
  750DIO     H141981   5.379  -0.246   4.761
  750DIO     H241982   5.338  -0.144   4.332
  750DIO     H341983   5.161  -0.358   4.389
  750DIO     H441984   4.909  -0.379   4.411
  750DIO     H541985   4.910  -0.098   4.745
  750DIO     H641986   4.301  -0.467   4.559
  750DIO     H741987   4.289  -0.208   4.913
  750DIO     H841988   4.132  -0.459   4.825
  750DIO     H941989   4.096  -0.270   4.512
  750DIO    H1041990   3.956  -0.368   4.472
  750DIO    H1141991   3.898  -0.137   4.562
  750DIO    H1241992   3.940  -0.103   4.810
  750DIO    H1341993   4.087  -0.110   4.714
  750DIO    H1441994   3.807  -0.361   4.752
  750DIO    H1541995   3.731  -0.205   4.731
  750DIO    H1641996   3.744  -0.429   4.524
  750DIO    H1741997   3.605  -0.378   4.617
  750DIO    H1841998   3.614  -0.152   4.504
  750DIO    H1941999   3.745  -0.214   4.400
  750DIO    H2042000   3.585  -0.287   4.394
  751DIO     F142001   2.807   8.931  -0.721
  751DIO     C142002   2.729   8.832  -0.673
  751DIO     C242003   2.585   8.849  -0.672
  751DIO     C342004   2.496   8.743  -0.619
  751DIO     C442005   2.562   8.619  -0.570
  751DIO     C542006   2.706   8.605  -0.573
  751DIO     F242007   2.762   8.489  -0.532
  751DIO     C642008   2.790   8.710  -0.625
  751DIO     F342009   2.924   8.696  -0.626
  751DIO     C742010   2.350   8.758  -0.615
  751DIO     C842011   2.273   8.732  -0.492
  751DIO     C942012   2.128   8.747  -0.489
  751DIO    C1042013   2.056   8.778  -0.610
  751DIO    C1142014   2.128   8.812  -0.732
  751DIO    C1242015   2.272   8.800  -0.734
  751DIO     F442016   2.337   8.826  -0.849
  751DIO     O142017   1.923   8.814  -0.595
  751DIO    C1342018   1.829   8.781  -0.692
  751DIO     O242019   1.828   8.697  -0.785
  751DIO    C1442020   1.700   8.847  -0.669
  751DIO    C1542021   1.633   8.846  -0.537
  751DIO     F542022   1.696   8.792  -0.430
  751DIO    C1642023   1.503   8.905  -0.514
  751DIO    C1742024   1.427   8.962  -0.625
  751DIO    C1842025   1.496   8.980  -0.752
  751DIO    C1942026   1.627   8.922  -0.774
  751DIO     F642027   1.690   8.955  -0.889
  751DIO    C2042028   1.286   9.013  -0.605
  751DIO     O342029   1.216   8.950  -0.497
  751DIO    C2142030   1.173   8.819  -0.529
  751DIO    C2242031   1.084   8.819  -0.653
  751DIO    C2342032   1.165   8.885  -0.765
  751DIO     O442033   1.209   9.014  -0.726
  751DIO    C2442034   0.951   8.895  -0.632
  751DIO    C2542035   0.860   8.842  -0.520
  751DIO    C2642036   0.822   8.696  -0.536
  751DIO     H142037   2.543   8.941  -0.710
  751DIO     H242038   2.501   8.534  -0.540
  751DIO     H342039   2.324   8.706  -0.400
  751DIO     H442040   2.073   8.736  -0.396
  751DIO     H542041   2.074   8.841  -0.820
  751DIO     H642042   1.465   8.908  -0.413
  751DIO     H742043   1.453   9.041  -0.831
  751DIO     H842044   1.296   9.118  -0.576
  751DIO     H942045   1.259   8.754  -0.544
  751DIO    H1042046   1.120   8.779  -0.442
  751DIO    H1142047   1.061   8.716  -0.682
  751DIO    H1242048   1.104   8.896  -0.855
  751DIO    H1342049   1.251   8.823  -0.792
  751DIO    H1442050   0.971   9.001  -0.612
  751DIO    H1542051   0.895   8.892  -0.726
  751DIO    H1642052   0.908   8.857  -0.423
  751DIO    H1742053   0.769   8.903  -0.519
  751DIO    H1842054   0.778   8.677  -0.635
  751DIO    H1942055   0.909   8.630  -0.524
  751DIO    H2042056   0.748   8.668  -0.461
  752DIO     F142057   6.581   7.551   9.614
  752DIO     C142058   6.504   7.659   9.596
  752DIO     C242059   6.359   7.643   9.590
  752DIO     C342060   6.271   7.760   9.568
  752DIO     C442061   6.336   7.892   9.555
  752DIO     C542062   6.480   7.905   9.562
  752DIO     F242063   6.536   8.028   9.554
  752DIO     C642064   6.564   7.789   9.582
  752DIO     F342065   6.698   7.803   9.587
  752DIO     C742066   6.124   7.746   9.560
  752DIO     C842067   6.047   7.805   9.449
  752DIO     C942068   5.902   7.791   9.441
  752DIO    C1042069   5.830   7.728   9.550
  752DIO    C1142070   5.902   7.662   9.657
  752DIO    C1242071   6.046   7.673   9.663
  752DIO     F442072   6.111   7.616   9.766
  752DIO     O142073   5.698   7.697   9.525
  752DIO    C1342074   5.603   7.702   9.627
  752DIO     O242075   5.602   7.758   9.740
  752DIO    C1442076   5.474   7.645   9.587
  752DIO    C1542077   5.408   7.683   9.460
  752DIO     F542078   5.470   7.764   9.373
  752DIO    C1642079   5.277   7.633   9.423
  752DIO    C1742080   5.201   7.547   9.513
  752DIO    C1842081   5.270   7.495   9.631
  752DIO    C1942082   5.402   7.544   9.668
  752DIO     F642083   5.464   7.481   9.769
  752DIO    C2042084   5.060   7.503   9.480
  752DIO     O342085   4.991   7.593   9.394
  752DIO    C2142086   4.947   7.711   9.460
  752DIO    C2242087   4.858   7.677   9.579
  752DIO    C2342088   4.939   7.583   9.669
  752DIO     O442089   4.983   7.469   9.596
  752DIO    C2442090   4.725   7.609   9.538
  752DIO    C2542091   4.635   7.691   9.446
  752DIO    C2642092   4.596   7.827   9.501
  752DIO     H142093   6.317   7.544   9.601
  752DIO     H242094   6.276   7.982   9.549
  752DIO     H342095   6.099   7.855   9.368
  752DIO     H442096   5.847   7.827   9.355
  752DIO     H542097   5.848   7.610   9.735
  752DIO     H642098   5.239   7.657   9.324
  752DIO     H742099   5.227   7.415   9.689
  752DIO     H842100   5.070   7.410   9.423
  752DIO     H942101   5.034   7.770   9.493
  752DIO    H1042102   4.894   7.773   9.387
  752DIO    H1142103   4.836   7.768   9.635
  752DIO    H1242104   4.878   7.547   9.752
  752DIO    H1342105   5.025   7.635   9.713
  752DIO    H1442106   4.745   7.513   9.490
  752DIO    H1542107   4.669   7.586   9.630
  752DIO    H1642108   4.682   7.704   9.348
  752DIO    H1742109   4.543   7.633   9.428
  752DIO    H1842110   4.552   7.818   9.601
  752DIO    H1942111   4.683   7.894   9.507
  752DIO    H2042112   4.523   7.875   9.436
  753DIO     F142113   2.736   9.080  10.490
  753DIO     C142114   2.659   8.979  10.448
  753DIO     C242115   2.515   8.989  10.461
  753DIO     C342116   2.426   8.879  10.418
  753DIO     C442117   2.491   8.760  10.359
  753DIO     C542118   2.636   8.752  10.347
  753DIO     F242119   2.691   8.644  10.289
  753DIO     C642120   2.719   8.861  10.390
  753DIO     F342121   2.853   8.852  10.379
  753DIO     C742122   2.279   8.887  10.432
  753DIO     C842123   2.202   8.777  10.496
  753DIO     C942124   2.058   8.785  10.509
  753DIO    C1042125   1.985   8.896  10.451
  753DIO    C1142126   2.058   9.009  10.394
  753DIO    C1242127   2.202   9.002  10.384
  753DIO     F442128   2.267   9.105  10.326
  753DIO     O142129   1.853   8.909  10.488
  753DIO    C1342130   1.758   8.959  10.398
  753DIO     O242131   1.757   8.971  10.273
  753DIO    C1442132   1.629   8.986  10.462
  753DIO    C1542133   1.563   8.887  10.550
  753DIO     F542134   1.626   8.772  10.581
  753DIO    C1642135   1.432   8.910  10.609
  753DIO    C1742136   1.356   9.030  10.577
  753DIO    C1842137   1.425   9.137  10.505
  753DIO    C1942138   1.557   9.114  10.447
  753DIO     F642139   1.619   9.222  10.394
  753DIO    C2042140   1.216   9.050  10.628
  753DIO     O342141   1.146   8.928  10.654
  753DIO    C2142142   1.102   8.863  10.535
  753DIO    C2242143   1.013   8.955  10.452
  753DIO    C2342144   1.094   9.082  10.426
  753DIO     O442145   1.138   9.140  10.548
  753DIO    C2442146   0.881   8.991  10.523
  753DIO    C2542147   0.790   8.872  10.558
  753DIO    C2642148   0.751   8.786  10.439
  753DIO     H142149   2.472   9.079  10.504
  753DIO     H242150   2.431   8.680  10.317
  753DIO     H342151   2.254   8.692  10.538
  753DIO     H442152   2.003   8.709  10.563
  753DIO     H542153   2.003   9.094  10.356
  753DIO     H642154   1.394   8.837  10.679
  753DIO     H742155   1.382   9.236  10.497
  753DIO     H842156   1.225   9.099  10.726
  753DIO     H942157   1.189   8.830  10.477
  753DIO    H1042158   1.049   8.772  10.564
  753DIO    H1142159   0.991   8.907  10.356
  753DIO    H1242160   1.033   9.156  10.374
  753DIO    H1342161   1.180   9.061  10.361
  753DIO    H1442162   0.900   9.047  10.615
  753DIO    H1542163   0.824   9.058  10.457
  753DIO    H1642164   0.837   8.810  10.635
  753DIO    H1742165   0.698   8.912  10.604
  753DIO    H1842166   0.708   8.847  10.359
  753DIO    H1942167   0.838   8.733  10.399
  753DIO    H2042168   0.678   8.711  10.469
  754DIO     F142169   9.803   8.053   9.481
  754DIO     C142170   9.725   7.978   9.401
  754DIO     C242171   9.581   7.982   9.417
  754DIO     C342172   9.492   7.899   9.332
  754DIO     C442173   9.558   7.816   9.229
  754DIO     C542174   9.702   7.814   9.214
  754DIO     F242175   9.758   7.740   9.116
  754DIO     C642176   9.786   7.895   9.299
  754DIO     F342177   9.920   7.892   9.285
  754DIO     C742178   9.346   7.901   9.348
  754DIO     C842179   9.269   7.775   9.360
  754DIO     C942180   9.124   7.776   9.375
  754DIO    C1042181   9.052   7.902   9.369
  754DIO    C1142182   9.124   8.027   9.365
  754DIO    C1242183   9.268   8.026   9.352
  754DIO     F442184   9.333   8.144   9.343
  754DIO     O142185   8.919   7.898   9.408
  754DIO    C1342186   8.825   7.980   9.347
  754DIO     O242187   8.824   8.044   9.239
  754DIO    C1442188   8.696   7.979   9.417
  754DIO    C1542189   8.630   7.852   9.455
  754DIO     F542190   8.692   7.734   9.435
  754DIO    C1642191   8.499   7.848   9.518
  754DIO    C1742192   8.423   7.971   9.539
  754DIO    C1842193   8.492   8.098   9.518
  754DIO    C1942194   8.623   8.101   9.457
  754DIO     F642195   8.686   8.221   9.454
  754DIO    C2042196   8.282   7.967   9.594
  754DIO     O342197   8.213   7.845   9.567
  754DIO    C2142198   8.169   7.836   9.432
  754DIO    C2242199   8.080   7.954   9.395
  754DIO    C2342200   8.161   8.081   9.424
  754DIO     O442201   8.205   8.083   9.559
  754DIO    C2442202   7.947   7.957   9.474
  754DIO    C2542203   7.857   7.835   9.457
  754DIO    C2642204   7.818   7.807   9.312
  754DIO     H142205   9.539   8.046   9.493
  754DIO     H242206   9.497   7.761   9.157
  754DIO     H342207   9.320   7.680   9.363
  754DIO     H442208   9.069   7.685   9.393
  754DIO     H542209   9.070   8.121   9.365
  754DIO     H642210   8.461   7.752   9.552
  754DIO     H742211   8.449   8.191   9.553
  754DIO     H842212   8.292   7.971   9.703
  754DIO     H942213   8.256   7.831   9.365
  754DIO    H1042214   8.116   7.741   9.420
  754DIO    H1142215   8.057   7.951   9.288
  754DIO    H1242216   8.100   8.170   9.407
  754DIO    H1342217   8.247   8.089   9.356
  754DIO    H1442218   7.967   7.970   9.581
  754DIO    H1542219   7.891   8.046   9.443
  754DIO    H1642220   7.904   7.746   9.500
  754DIO    H1742221   7.765   7.852   9.514
  754DIO    H1842222   7.774   7.895   9.265
  754DIO    H1942223   7.905   7.775   9.253
  754DIO    H2042224   7.744   7.726   9.308
  755DIO     F142225   9.125   6.821   2.171
  755DIO     C142226   9.048   6.714   2.146
  755DIO     C242227   8.904   6.726   2.158
  755DIO     C342228   8.815   6.610   2.134
  755DIO     C442229   8.880   6.483   2.095
  755DIO     C542230   9.025   6.473   2.084
  755DIO     F242231   9.080   6.357   2.045
  755DIO     C642232   9.108   6.588   2.109
  755DIO     F342233   9.242   6.578   2.100
  755DIO     C742234   8.669   6.620   2.146
  755DIO     C842235   8.591   6.523   2.227
  755DIO     C942236   8.447   6.533   2.239
  755DIO    C1042237   8.374   6.633   2.163
  755DIO    C1142238   8.447   6.734   2.089
  755DIO    C1242239   8.591   6.726   2.079
  755DIO     F442240   8.656   6.819   2.005
  755DIO     O142241   8.242   6.651   2.197
  755DIO    C1342242   8.147   6.686   2.101
  755DIO     O242243   8.147   6.678   1.975
  755DIO    C1442244   8.018   6.723   2.160
  755DIO    C1542245   7.952   6.640   2.262
  755DIO     F542246   8.015   6.531   2.312
  755DIO    C1642247   7.821   6.672   2.317
  755DIO    C1742248   7.745   6.786   2.265
  755DIO    C1842249   7.814   6.879   2.176
  755DIO    C1942250   7.946   6.847   2.124
  755DIO     F642251   8.008   6.945   2.054
  755DIO    C2042252   7.605   6.814   2.312
  755DIO     O342253   7.535   6.697   2.358
  755DIO    C2142254   7.491   6.614   2.252
  755DIO    C2242255   7.402   6.691   2.155
  755DIO    C2342256   7.483   6.812   2.108
  755DIO     O442257   7.527   6.889   2.219
  755DIO    C2442258   7.270   6.738   2.218
  755DIO    C2542259   7.179   6.627   2.273
  755DIO    C2642260   7.141   6.522   2.169
  755DIO     H142261   8.861   6.822   2.185
  755DIO     H242262   8.820   6.398   2.067
  755DIO     H342263   8.643   6.446   2.283
  755DIO     H442264   8.392   6.467   2.304
  755DIO     H542265   8.392   6.812   2.037
  755DIO     H642266   7.783   6.612   2.398
  755DIO     H742267   7.771   6.975   2.153
  755DIO     H842268   7.614   6.878   2.401
  755DIO     H942269   7.578   6.572   2.199
  755DIO    H1042270   7.439   6.529   2.295
  755DIO    H1142271   7.380   6.628   2.068
  755DIO    H1242272   7.422   6.877   2.044
  755DIO    H1342273   7.569   6.780   2.047
  755DIO    H1442274   7.290   6.808   2.300
  755DIO    H1542275   7.213   6.794   2.143
  755DIO    H1642276   7.226   6.578   2.359
  755DIO    H1742277   7.087   6.673   2.311
  755DIO    H1842278   7.097   6.569   2.081
  755DIO    H1942279   7.227   6.463   2.138
  755DIO    H2042280   7.067   6.453   2.212
  756DIO     F142281   1.234  -0.161   5.057
  756DIO     C142282   1.156  -0.262   5.012
  756DIO     C242283   1.012  -0.252   5.026
  756DIO     C342284   0.923  -0.361   4.980
  756DIO     C442285   0.989  -0.478   4.917
  756DIO     C542286   1.133  -0.486   4.904
  756DIO     F242287   1.189  -0.592   4.843
  756DIO     C642288   1.217  -0.378   4.951
  756DIO     F342289   1.351  -0.386   4.940
  756DIO     C742290   0.777  -0.353   4.994
  756DIO     C842291   0.700  -0.464   5.054
  756DIO     C942292   0.555  -0.457   5.068
  756DIO    C1042293   0.483  -0.344   5.012
  756DIO    C1142294   0.555  -0.230   4.959
  756DIO    C1242295   0.699  -0.236   4.948
  756DIO     F442296   0.764  -0.132   4.894
  756DIO     O142297   0.350  -0.333   5.050
  756DIO    C1342298   0.256  -0.280   4.962
  756DIO     O242299   0.255  -0.264   4.837
  756DIO    C1442300   0.127  -0.255   5.026
  756DIO    C1542301   0.060  -0.356   5.111
  756DIO     F542302   0.123  -0.472   5.139
  756DIO    C1642303  -0.070  -0.335   5.171
  756DIO    C1742304  -0.146  -0.214   5.142
  756DIO    C1842305  -0.077  -0.106   5.073
  756DIO    C1942306   0.054  -0.126   5.015
  756DIO     F642307   0.117  -0.017   4.965
  756DIO    C2042308  -0.287  -0.195   5.194
  756DIO     O342309  -0.357  -0.319   5.217
  756DIO    C2142310  -0.400  -0.380   5.096
  756DIO    C2242311  -0.489  -0.286   5.016
  756DIO    C2342312  -0.408  -0.158   4.993
  756DIO     O442313  -0.364  -0.103   5.116
  756DIO    C2442314  -0.622  -0.252   5.087
  756DIO    C2542315  -0.713  -0.371   5.119
  756DIO    C2642316  -0.751  -0.454   4.998
  756DIO     H142317   0.970  -0.163   5.071
  756DIO     H242318   0.928  -0.557   4.873
  756DIO     H342319   0.751  -0.551   5.094
  756DIO     H442320   0.500  -0.535   5.119
  756DIO     H542321   0.501  -0.144   4.923
  756DIO     H642322  -0.108  -0.410   5.239
  756DIO     H742323  -0.120  -0.006   5.068
  756DIO     H842324  -0.277  -0.149   5.293
  756DIO     H942325  -0.314  -0.411   5.037
  756DIO    H1042326  -0.453  -0.472   5.122
  756DIO    H1142327  -0.512  -0.331   4.918
  756DIO    H1242328  -0.469  -0.082   4.943
  756DIO    H1342329  -0.322  -0.177   4.928
  756DIO    H1442330  -0.602  -0.198   5.181
  756DIO    H1542331  -0.678  -0.182   5.024
  756DIO    H1642332  -0.665  -0.436   5.194
  756DIO    H1742333  -0.804  -0.333   5.166
  756DIO    H1842334  -0.795  -0.391   4.919
  756DIO    H1942335  -0.664  -0.506   4.956
  756DIO    H2042336  -0.825  -0.530   5.026
  757DIO     F142337   3.778  -0.864  -0.256
  757DIO     C142338   3.701  -0.755  -0.272
  757DIO     C242339   3.557  -0.770  -0.278
  757DIO     C342340   3.468  -0.654  -0.298
  757DIO     C442341   3.533  -0.521  -0.308
  757DIO     C542342   3.678  -0.508  -0.302
  757DIO     F242343   3.733  -0.386  -0.307
  757DIO     C642344   3.761  -0.624  -0.283
  757DIO     F342345   3.895  -0.611  -0.278
  757DIO     C742346   3.322  -0.668  -0.306
  757DIO     C842347   3.244  -0.607  -0.417
  757DIO     C942348   3.100  -0.620  -0.424
  757DIO    C1042349   3.027  -0.685  -0.317
  757DIO    C1142350   3.100  -0.753  -0.211
  757DIO    C1242351   3.244  -0.742  -0.205
  757DIO     F442352   3.309  -0.801  -0.102
  757DIO     O142353   2.895  -0.715  -0.342
  757DIO    C1342354   2.800  -0.712  -0.240
  757DIO     O242355   2.800  -0.659  -0.126
  757DIO    C1442356   2.671  -0.769  -0.281
  757DIO    C1542357   2.605  -0.729  -0.407
  757DIO     F542358   2.668  -0.645  -0.493
  757DIO    C1642359   2.474  -0.778  -0.446
  757DIO    C1742360   2.398  -0.865  -0.356
  757DIO    C1842361   2.467  -0.919  -0.240
  757DIO    C1942362   2.599  -0.871  -0.202
  757DIO     F642363   2.661  -0.936  -0.101
  757DIO    C2042364   2.258  -0.908  -0.390
  757DIO     O342365   2.188  -0.817  -0.475
  757DIO    C2142366   2.144  -0.700  -0.406
  757DIO    C2242367   2.055  -0.737  -0.288
  757DIO    C2342368   2.136  -0.832  -0.200
  757DIO     O442369   2.180  -0.945  -0.275
  757DIO    C2442370   1.923  -0.803  -0.330
  757DIO    C2542371   1.832  -0.720  -0.421
  757DIO    C2642372   1.794  -0.585  -0.363
  757DIO     H142373   3.514  -0.870  -0.269
  757DIO     H242374   3.473  -0.431  -0.313
  757DIO     H342375   3.296  -0.555  -0.497
  757DIO     H442376   3.045  -0.582  -0.509
  757DIO     H542377   3.045  -0.806  -0.134
  757DIO     H642378   2.436  -0.752  -0.543
  757DIO     H742379   2.424  -1.001  -0.182
  757DIO     H842380   2.267  -1.001  -0.449
  757DIO     H942381   2.231  -0.642  -0.373
  757DIO    H1042382   2.092  -0.637  -0.478
  757DIO    H1142383   2.033  -0.646  -0.230
  757DIO    H1242384   2.075  -0.869  -0.117
  757DIO    H1342385   2.222  -0.781  -0.156
  757DIO    H1442386   1.943  -0.899  -0.380
  757DIO    H1542387   1.866  -0.828  -0.239
  757DIO    H1642388   1.879  -0.706  -0.519
  757DIO    H1742389   1.740  -0.777  -0.440
  757DIO    H1842390   1.750  -0.596  -0.264
  757DIO    H1942391   1.880  -0.518  -0.356
  757DIO    H2042392   1.720  -0.536  -0.428
  758DIO     F142393   6.065   1.682  -0.747
  758DIO     C142394   5.988   1.776  -0.803
  758DIO     C242395   5.844   1.759  -0.803
  758DIO     C342396   5.755   1.860  -0.866
  758DIO     C442397   5.820   1.978  -0.926
  758DIO     C542398   5.965   1.993  -0.925
  758DIO     F242399   6.020   2.104  -0.977
  758DIO     C642400   6.048   1.893  -0.863
  758DIO     F342401   6.182   1.907  -0.863
  758DIO     C742402   5.608   1.844  -0.868
  758DIO     C842403   5.531   1.858  -0.993
  758DIO     C942404   5.387   1.843  -0.995
  758DIO    C1042405   5.314   1.824  -0.871
  758DIO    C1142406   5.386   1.801  -0.747
  758DIO    C1242407   5.531   1.814  -0.746
  758DIO     F442408   5.595   1.798  -0.629
  758DIO     O142409   5.182   1.786  -0.883
  758DIO    C1342410   5.087   1.828  -0.790
  758DIO     O242411   5.086   1.921  -0.705
  758DIO    C1442412   4.958   1.760  -0.806
  758DIO    C1542413   4.892   1.749  -0.938
  758DIO     F542414   4.954   1.793  -1.049
  758DIO    C1642415   4.761   1.689  -0.955
  758DIO    C1742416   4.685   1.642  -0.839
  758DIO    C1842417   4.754   1.637  -0.710
  758DIO    C1942418   4.886   1.696  -0.694
  758DIO     F642419   4.948   1.674  -0.576
  758DIO    C2042420   4.545   1.589  -0.854
  758DIO     O342421   4.475   1.642  -0.967
  758DIO    C2142422   4.431   1.776  -0.948
  758DIO    C2242423   4.342   1.787  -0.825
  758DIO    C2342424   4.423   1.732  -0.707
  758DIO     O442425   4.467   1.600  -0.733
  758DIO    C2442426   4.209   1.709  -0.838
  758DIO    C2542427   4.119   1.752  -0.954
  758DIO    C2642428   4.080   1.899  -0.952
  758DIO     H142429   5.801   1.672  -0.756
  758DIO     H242430   5.760   2.060  -0.964
  758DIO     H342431   5.583   1.875  -1.087
  758DIO     H442432   5.331   1.845  -1.088
  758DIO     H542433   5.332   1.781  -0.656
  758DIO     H642434   4.723   1.676  -1.055
  758DIO     H742435   4.711   1.583  -0.627
  758DIO     H842436   4.554   1.482  -0.873
  758DIO     H942437   4.518   1.842  -0.939
  758DIO    H1042438   4.378   1.807  -1.039
  758DIO    H1142439   4.320   1.893  -0.806
  758DIO    H1242440   4.362   1.730  -0.616
  758DIO    H1342441   4.509   1.797  -0.685
  758DIO    H1442442   4.229   1.602  -0.848
  758DIO    H1542443   4.153   1.721  -0.745
  758DIO    H1642444   4.166   1.727  -1.050
  758DIO    H1742445   4.027   1.691  -0.950
  758DIO    H1842446   4.036   1.927  -0.856
  758DIO    H1942447   4.167   1.963  -0.971
  758DIO    H2042448   4.007   1.919  -1.030
  759DIO     F142449   7.635   9.876   1.124
  759DIO     C142450   7.558   9.980   1.087
  759DIO     C242451   7.414   9.963   1.083
  759DIO     C342452   7.325  10.073   1.041
  759DIO     C442453   7.390  10.201   1.005
  759DIO     C542454   7.535  10.215   1.009
  759DIO     F242455   7.590  10.335   0.979
  759DIO     C642456   7.618  10.105   1.050
  759DIO     F342457   7.752  10.119   1.052
  759DIO     C742458   7.178  10.058   1.036
  759DIO     C842459   7.101  10.096   0.916
  759DIO     C942460   6.957  10.082   0.911
  759DIO    C1042461   6.884  10.039   1.029
  759DIO    C1142462   6.956   9.993   1.146
  759DIO    C1242463   7.101  10.005   1.150
  759DIO     F442464   7.165   9.968   1.262
  759DIO     O142465   6.752  10.004   1.010
  759DIO    C1342466   6.657  10.028   1.110
  759DIO     O242467   6.656  10.103   1.211
  759DIO    C1442468   6.528   9.964   1.081
  759DIO    C1542469   6.462   9.979   0.949
  759DIO     F542470   6.524  10.043   0.849
  759DIO    C1642471   6.331   9.922   0.921
  759DIO    C1742472   6.255   9.855   1.026
  759DIO    C1842473   6.324   9.825   1.151
  759DIO    C1942474   6.456   9.880   1.178
  759DIO     F642475   6.518   9.836   1.290
  759DIO    C2042476   6.115   9.806   1.001
  759DIO     O342477   6.045   9.879   0.900
  759DIO    C2142478   6.001  10.007   0.944
  759DIO    C2242479   5.912   9.994   1.067
  759DIO    C2342480   5.993   9.918   1.172
  759DIO     O442481   6.037   9.793   1.121
  759DIO    C2442482   5.779   9.920   1.039
  759DIO    C2542483   5.689   9.984   0.933
  759DIO    C2642484   5.650  10.128   0.964
  759DIO     H142485   7.371   9.868   1.113
  759DIO     H242486   7.330  10.289   0.983
  759DIO     H342487   7.153  10.131   0.827
  759DIO     H442488   6.901  10.102   0.820
  759DIO     H542489   6.902   9.956   1.232
  759DIO     H642490   6.293   9.929   0.820
  759DIO     H742491   6.281   9.756   1.223
  759DIO     H842492   6.124   9.704   0.962
  759DIO     H942493   6.088  10.070   0.965
  759DIO    H1042494   5.948  10.055   0.861
  759DIO    H1142495   5.890  10.094   1.106
  759DIO    H1242496   5.932   9.898   1.261
  759DIO    H1342497   6.079   9.977   1.206
  759DIO    H1442498   5.799   9.817   1.009
  759DIO    H1542499   5.723   9.914   1.133
  759DIO    H1642500   5.736   9.979   0.835
  759DIO    H1742501   5.597   9.924   0.926
  759DIO    H1842502   5.606  10.137   1.063
  759DIO    H1942503   5.737  10.195   0.958
  759DIO    H2042504   5.577  10.163   0.891
  760DIO     F142505   1.684   6.884   0.254
  760DIO     C142506   1.607   6.951   0.341
  760DIO     C242507   1.463   6.949   0.324
  760DIO     C342508   1.374   7.023   0.417
  760DIO     C442509   1.439   7.097   0.527
  760DIO     C542510   1.584   7.097   0.542
  760DIO     F242511   1.639   7.162   0.647
  760DIO     C642512   1.667   7.024   0.450
  760DIO     F342513   1.801   7.026   0.464
  760DIO     C742514   1.227   7.023   0.401
  760DIO     C842515   1.150   7.150   0.400
  760DIO     C942516   1.006   7.150   0.385
  760DIO    C1042517   0.933   7.024   0.380
  760DIO    C1142518   1.005   6.899   0.372
  760DIO    C1242519   1.150   6.899   0.385
  760DIO     F442520   1.214   6.781   0.383
  760DIO     O142521   0.801   7.032   0.341
  760DIO    C1342522   0.706   6.944   0.394
  760DIO     O242523   0.705   6.870   0.496
  760DIO    C1442524   0.577   6.952   0.325
  760DIO    C1542525   0.511   7.082   0.298
  760DIO     F542526   0.573   7.197   0.329
  760DIO    C1642527   0.380   7.092   0.236
  760DIO    C1742528   0.304   6.971   0.204
  760DIO    C1842529   0.373   6.843   0.213
  760DIO    C1942530   0.505   6.834   0.274
  760DIO     F642531   0.567   6.714   0.266
  760DIO    C2042532   0.164   6.980   0.149
  760DIO     O342533   0.094   7.099   0.188
  760DIO    C2142534   0.050   7.095   0.323
  760DIO    C2242535  -0.039   6.974   0.349
  760DIO    C2342536   0.042   6.851   0.308
  760DIO     O442537   0.086   6.862   0.173
  760DIO    C2442538  -0.172   6.979   0.270
  760DIO    C2542539  -0.262   7.099   0.299
  760DIO    C2642540  -0.301   7.114   0.445
  760DIO     H142541   1.420   6.892   0.242
  760DIO     H242542   1.379   7.144   0.604
  760DIO     H342543   1.202   7.245   0.406
  760DIO     H442544   0.950   7.242   0.376
  760DIO     H542545   0.951   6.806   0.363
  760DIO     H642546   0.342   7.190   0.212
  760DIO     H742547   0.330   6.754   0.170
  760DIO     H842548   0.173   6.986   0.040
  760DIO     H942549   0.137   7.094   0.390
  760DIO    H1042550  -0.003   7.189   0.344
  760DIO    H1142551  -0.061   6.968   0.456
  760DIO    H1242552  -0.019   6.760   0.316
  760DIO    H1342553   0.128   6.837   0.375
  760DIO    H1442554  -0.152   6.976   0.162
  760DIO    H1542555  -0.228   6.887   0.293
  760DIO    H1642556  -0.215   7.191   0.264
  760DIO    H1742557  -0.354   7.087   0.240
  760DIO    H1842558  -0.345   7.021   0.484
  760DIO    H1942559  -0.214   7.140   0.507
  760DIO    H2042560  -0.374   7.194   0.456
  761DIO     F142561   6.175   4.855   6.709
  761DIO     C142562   6.098   4.748   6.682
  761DIO     C242563   5.954   4.760   6.694
  761DIO     C342564   5.865   4.645   6.668
  761DIO     C442565   5.930   4.519   6.626
  761DIO     C542566   6.075   4.509   6.615
  761DIO     F242567   6.130   4.394   6.573
  761DIO     C642568   6.158   4.624   6.642
  761DIO     F342569   6.292   4.613   6.633
  761DIO     C742570   5.718   4.655   6.680
  761DIO     C842571   5.641   4.556   6.759
  761DIO     C942572   5.497   4.565   6.771
  761DIO    C1042573   5.424   4.667   6.697
  761DIO    C1142574   5.496   4.770   6.625
  761DIO    C1242575   5.641   4.762   6.615
  761DIO     F442576   5.705   4.856   6.543
  761DIO     O142577   5.292   4.685   6.732
  761DIO    C1342578   5.197   4.721   6.636
  761DIO     O242579   5.196   4.715   6.510
  761DIO    C1442580   5.068   4.758   6.695
  761DIO    C1542581   5.002   4.673   6.797
  761DIO     F542582   5.064   4.563   6.844
  761DIO    C1642583   4.871   4.703   6.851
  761DIO    C1742584   4.795   4.818   6.802
  761DIO    C1842585   4.864   4.913   6.715
  761DIO    C1942586   4.996   4.882   6.662
  761DIO     F642587   5.058   4.981   6.594
  761DIO    C2042588   4.655   4.845   6.850
  761DIO     O342589   4.585   4.728   6.894
  761DIO    C2142590   4.541   4.646   6.785
  761DIO    C2242591   4.452   4.725   6.690
  761DIO    C2342592   4.533   4.847   6.645
  761DIO     O442593   4.577   4.923   6.758
  761DIO    C2442594   4.319   4.771   6.754
  761DIO    C2542595   4.229   4.659   6.807
  761DIO    C2642596   4.190   4.557   6.701
  761DIO     H142597   5.911   4.856   6.723
  761DIO     H242598   5.870   4.434   6.596
  761DIO     H342599   5.693   4.478   6.813
  761DIO     H442600   5.441   4.498   6.835
  761DIO     H542601   5.442   4.849   6.574
  761DIO     H642602   4.833   4.642   6.932
  761DIO     H742603   4.821   5.010   6.693
  761DIO     H842604   4.664   4.908   6.939
  761DIO     H942605   4.628   4.606   6.732
  761DIO    H1042606   4.488   4.560   6.827
  761DIO    H1142607   4.430   4.664   6.602
  761DIO    H1242608   4.472   4.913   6.583
  761DIO    H1342609   4.619   4.817   6.584
  761DIO    H1442610   4.339   4.840   6.837
  761DIO    H1542611   4.263   4.829   6.680
  761DIO    H1642612   4.276   4.609   6.892
  761DIO    H1742613   4.137   4.705   6.846
  761DIO    H1842614   4.146   4.605   6.614
  761DIO    H1942615   4.277   4.498   6.669
  761DIO    H2042616   4.117   4.487   6.742
  762DIO     F142617   1.766   3.701   3.791
  762DIO     C142618   1.689   3.811   3.788
  762DIO     C242619   1.544   3.796   3.780
  762DIO     C342620   1.456   3.915   3.773
  762DIO     C442621   1.521   4.048   3.779
  762DIO     C542622   1.665   4.060   3.787
  762DIO     F242623   1.721   4.182   3.795
  762DIO     C642624   1.749   3.942   3.792
  762DIO     F342625   1.883   3.955   3.798
  762DIO     C742626   1.309   3.902   3.764
  762DIO     C842627   1.232   3.975   3.661
  762DIO     C942628   1.087   3.963   3.652
  762DIO    C1042629   1.015   3.885   3.751
  762DIO    C1142630   1.087   3.806   3.849
  762DIO    C1242631   1.231   3.816   3.856
  762DIO     F442632   1.296   3.746   3.951
  762DIO     O142633   0.883   3.859   3.723
  762DIO    C1342634   0.788   3.850   3.825
  762DIO     O242635   0.787   3.890   3.944
  762DIO    C1442636   0.659   3.799   3.778
  762DIO    C1542637   0.593   3.853   3.657
  762DIO     F542638   0.655   3.945   3.581
  762DIO    C1642639   0.462   3.808   3.613
  762DIO    C1742640   0.386   3.711   3.691
  762DIO    C1842641   0.455   3.644   3.801
  762DIO    C1942642   0.587   3.688   3.844
  762DIO     F642643   0.649   3.612   3.936
  762DIO    C2042644   0.245   3.672   3.653
  762DIO     O342645   0.176   3.773   3.579
  762DIO    C2142646   0.132   3.881   3.660
  762DIO    C2242647   0.043   3.831   3.774
  762DIO    C2342648   0.124   3.726   3.850
  762DIO     O442649   0.168   3.623   3.763
  762DIO    C2442650  -0.090   3.770   3.724
  762DIO    C2542651  -0.180   3.863   3.643
  762DIO    C2642652  -0.219   3.991   3.717
  762DIO     H142653   1.502   3.697   3.778
  762DIO     H242654   1.461   4.137   3.784
  762DIO     H342655   1.284   4.036   3.588
  762DIO     H442656   1.032   4.010   3.572
  762DIO     H542657   1.033   3.744   3.919
  762DIO     H642658   0.424   3.846   3.518
  762DIO     H742659   0.412   3.557   3.848
  762DIO     H842660   0.255   3.588   3.584
  762DIO     H942661   0.219   3.935   3.700
  762DIO    H1042662   0.079   3.952   3.597
  762DIO    H1142663   0.021   3.914   3.842
  762DIO    H1242664   0.063   3.680   3.928
  762DIO    H1342665   0.210   3.772   3.900
  762DIO    H1442666  -0.070   3.681   3.663
  762DIO    H1542667  -0.146   3.735   3.812
  762DIO    H1642668  -0.133   3.889   3.548
  762DIO    H1742669  -0.272   3.808   3.618
  762DIO    H1842670  -0.263   3.968   3.814
  762DIO    H1942671  -0.132   4.056   3.732
  762DIO    H2042672  -0.292   4.047   3.658
  763DIO     F142673   9.328  -0.026   7.189
  763DIO     C142674   9.250  -0.033   7.299
  763DIO     C242675   9.106  -0.024   7.285
  763DIO     C342676   9.017  -0.029   7.403
  763DIO     C442677   9.083  -0.047   7.535
  763DIO     C542678   9.227  -0.056   7.546
  763DIO     F242679   9.282  -0.077   7.667
  763DIO     C642680   9.311  -0.050   7.429
  763DIO     F342681   9.445  -0.058   7.441
  763DIO     C742682   8.871  -0.018   7.391
  763DIO     C842683   8.794   0.077   7.474
  763DIO     C942684   8.649   0.087   7.463
  763DIO    C1042685   8.576  -0.004   7.376
  763DIO    C1142686   8.649  -0.094   7.288
  763DIO    C1242687   8.793  -0.102   7.297
  763DIO     F442688   8.858  -0.189   7.218
  763DIO     O142689   8.444   0.027   7.352
  763DIO    C1342690   8.350  -0.074   7.334
  763DIO     O242691   8.349  -0.196   7.362
  763DIO    C1442692   8.221  -0.022   7.287
  763DIO    C1542693   8.154   0.093   7.353
  763DIO     F542694   8.217   0.159   7.452
  763DIO    C1642695   8.024   0.141   7.313
  763DIO    C1742696   7.948   0.072   7.209
  763DIO    C1842697   8.017  -0.030   7.131
  763DIO    C1942698   8.148  -0.077   7.171
  763DIO     F642699   8.211  -0.162   7.086
  763DIO    C2042700   7.807   0.115   7.174
  763DIO     O342701   7.737   0.178   7.281
  763DIO    C2142702   7.694   0.087   7.381
  763DIO    C2242703   7.605  -0.021   7.320
  763DIO    C2342704   7.686  -0.087   7.208
  763DIO     O442705   7.730   0.010   7.114
  763DIO    C2442706   7.472   0.034   7.264
  763DIO    C2542707   7.381   0.105   7.364
  763DIO    C2642708   7.343   0.020   7.484
  763DIO     H142709   9.063  -0.012   7.186
  763DIO     H242710   9.022  -0.062   7.624
  763DIO     H342711   8.845   0.144   7.541
  763DIO     H442712   8.594   0.162   7.518
  763DIO     H542713   8.595  -0.157   7.219
  763DIO     H642714   7.985   0.231   7.359
  763DIO     H742715   7.974  -0.069   7.040
  763DIO     H842716   7.817   0.191   7.096
  763DIO     H942717   7.780   0.042   7.430
  763DIO    H1042718   7.641   0.143   7.458
  763DIO    H1142719   7.582  -0.097   7.396
  763DIO    H1242720   7.624  -0.160   7.154
  763DIO    H1342721   7.772  -0.142   7.249
  763DIO    H1442722   7.492   0.103   7.181
  763DIO    H1542723   7.416  -0.050   7.220
  763DIO    H1642724   7.429   0.198   7.399
  763DIO    H1742725   7.290   0.136   7.312
  763DIO    H1842726   7.299  -0.075   7.452
  763DIO    H1942727   7.429  -0.001   7.548
  763DIO    H2042728   7.269   0.073   7.546
  764DIO     F142729   9.776   2.884  -0.936
  764DIO     C142730   9.698   2.869  -0.827
  764DIO     C242731   9.554   2.880  -0.841
  764DIO     C342732   9.465   2.867  -0.723
  764DIO     C442733   9.531   2.841  -0.592
  764DIO     C542734   9.675   2.831  -0.582
  764DIO     F242735   9.730   2.803  -0.462
  764DIO     C642736   9.759   2.845  -0.699
  764DIO     F342737   9.892   2.836  -0.687
  764DIO     C742738   9.319   2.879  -0.734
  764DIO     C842739   9.242   2.968  -0.645
  764DIO     C942740   9.097   2.979  -0.656
  764DIO    C1042741   9.024   2.894  -0.748
  764DIO    C1142742   9.097   2.810  -0.842
  764DIO    C1242743   9.241   2.801  -0.833
  764DIO     F442744   9.306   2.719  -0.918
  764DIO     O142745   8.892   2.926  -0.770
  764DIO    C1342746   8.798   2.827  -0.795
  764DIO     O242747   8.797   2.703  -0.774
  764DIO    C1442748   8.669   2.882  -0.838
  764DIO    C1542749   8.602   2.992  -0.765
  764DIO     F542750   8.665   3.052  -0.662
  764DIO    C1642751   8.471   3.043  -0.803
  764DIO    C1742752   8.396   2.981  -0.910
  764DIO    C1842753   8.464   2.883  -0.994
  764DIO    C1942754   8.596   2.834  -0.958
  764DIO     F642755   8.659   2.754  -1.048
  764DIO    C2042756   8.255   3.025  -0.943
  764DIO     O342757   8.185   3.082  -0.832
  764DIO    C2142758   8.142   2.984  -0.738
  764DIO    C2242759   8.053   2.880  -0.805
  764DIO    C2342760   8.133   2.821  -0.921
  764DIO     O442761   8.178   2.924  -1.009
  764DIO    C2442762   7.920   2.939  -0.858
  764DIO    C2542763   7.829   3.004  -0.753
  764DIO    C2642764   7.791   2.911  -0.639
  764DIO     H142765   9.511   2.897  -0.939
  764DIO     H242766   9.470   2.821  -0.505
  764DIO     H342767   9.293   3.031  -0.574
  764DIO     H442768   9.042   3.051  -0.597
  764DIO     H542769   9.042   2.751  -0.914
  764DIO     H642770   8.433   3.130  -0.751
  764DIO     H742771   8.422   2.850  -1.088
  764DIO     H842772   8.265   3.106  -1.016
  764DIO     H942773   8.228   2.936  -0.691
  764DIO    H1042774   8.089   3.036  -0.658
  764DIO    H1142775   8.030   2.800  -0.734
  764DIO    H1242776   8.072   2.751  -0.979
  764DIO    H1342777   8.220   2.764  -0.884
  764DIO    H1442778   7.940   3.013  -0.936
  764DIO    H1542779   7.863   2.858  -0.907
  764DIO    H1642780   7.877   3.094  -0.713
  764DIO    H1742781   7.737   3.037  -0.803
  764DIO    H1842782   7.747   2.818  -0.676
  764DIO    H1942783   7.877   2.886  -0.577
  764DIO    H2042784   7.717   2.960  -0.574
  765DIO     F142785   9.102   9.325  10.735
  765DIO     C142786   9.025   9.285  10.633
  765DIO     C242787   8.881   9.282  10.650
  765DIO     C342788   8.792   9.237  10.540
  765DIO     C442789   8.857   9.196  10.414
  765DIO     C542790   9.002   9.200  10.399
  765DIO     F242791   9.057   9.167  10.281
  765DIO     C642792   9.085   9.245  10.508
  765DIO     F342793   9.219   9.246  10.494
  765DIO     C742794   8.646   9.232  10.556
  765DIO     C842795   8.568   9.110  10.521
  765DIO     C942796   8.424   9.106  10.536
  765DIO    C1042797   8.351   9.225  10.575
  765DIO    C1142798   8.424   9.344  10.617
  765DIO    C1242799   8.568   9.347  10.605
  765DIO     F442800   8.633   9.461  10.639
  765DIO     O142801   8.219   9.208  10.610
  765DIO    C1342802   8.124   9.306  10.584
  765DIO     O242803   8.124   9.405  10.506
  765DIO    C1442804   7.995   9.280  10.648
  765DIO    C1542805   7.929   9.148  10.638
  765DIO     F542806   7.992   9.045  10.576
  765DIO    C1642807   7.798   9.121  10.695
  765DIO    C1742808   7.722   9.228  10.759
  765DIO    C1842809   7.791   9.354  10.786
  765DIO    C1942810   7.923   9.379  10.730
  765DIO     F642811   7.985   9.492  10.770
  765DIO    C2042812   7.582   9.205  10.809
  765DIO     O342813   7.512   9.101  10.739
  765DIO    C2142814   7.468   9.142  10.610
  765DIO    C2242815   7.379   9.265  10.619
  765DIO    C2342816   7.460   9.373  10.692
  765DIO     O442817   7.504   9.325  10.818
  765DIO    C2442818   7.247   9.239  10.693
  765DIO    C2542819   7.156   9.132  10.633
  765DIO    C2642820   7.118   9.157  10.488
  765DIO     H142821   8.838   9.314  10.744
  765DIO     H242822   8.797   9.172  10.327
  765DIO     H342823   8.620   9.021  10.489
  765DIO     H442824   8.369   9.015  10.519
  765DIO     H542825   8.369   9.431  10.652
  765DIO     H642826   7.760   9.020  10.691
  765DIO     H742827   7.748   9.428  10.852
  765DIO     H842828   7.591   9.169  10.912
  765DIO     H942829   7.555   9.161  10.546
  765DIO    H1042830   7.416   9.057  10.565
  765DIO    H1142831   7.357   9.301  10.518
  765DIO    H1242832   7.399   9.462  10.709
  765DIO    H1342833   7.546   9.404  10.632
  765DIO    H1442834   7.267   9.212  10.798
  765DIO    H1542835   7.190   9.333  10.697
  765DIO    H1642836   7.203   9.033  10.641
  765DIO    H1742837   7.064   9.126  10.693
  765DIO    H1842838   7.074   9.257  10.476
  765DIO    H1942839   7.204   9.149  10.422
  765DIO    H2042840   7.044   9.084  10.455
  766DIO     F142841   3.730   4.773   6.560
  766DIO     C142842   3.652   4.779   6.670
  766DIO     C242843   3.508   4.787   6.655
  766DIO     C342844   3.419   4.796   6.773
  766DIO     C442845   3.485   4.793   6.906
  766DIO     C542846   3.629   4.786   6.918
  766DIO     F242847   3.684   4.780   7.041
  766DIO     C642848   3.713   4.778   6.801
  766DIO     F342849   3.846   4.772   6.814
  766DIO     C742850   3.273   4.805   6.760
  766DIO     C842851   3.196   4.909   6.831
  766DIO     C942852   3.051   4.918   6.819
  766DIO    C1042853   2.978   4.817   6.743
  766DIO    C1142854   3.051   4.718   6.666
  766DIO    C1242855   3.195   4.711   6.677
  766DIO     F442856   3.260   4.614   6.608
  766DIO     O142857   2.846   4.845   6.716
  766DIO    C1342858   2.752   4.743   6.710
  766DIO     O242859   2.751   4.625   6.752
  766DIO    C1442860   2.622   4.789   6.657
  766DIO    C1542861   2.556   4.911   6.709
  766DIO     F542862   2.619   4.989   6.800
  766DIO    C1642863   2.425   4.954   6.663
  766DIO    C1742864   2.350   4.873   6.568
  766DIO    C1842865   2.418   4.762   6.503
  766DIO    C1942866   2.550   4.720   6.548
  766DIO     F642867   2.612   4.626   6.474
  766DIO    C2042868   2.209   4.911   6.528
  766DIO     O342869   2.139   4.987   6.627
  766DIO    C2142870   2.095   4.908   6.737
  766DIO    C2242871   2.007   4.793   6.690
  766DIO    C2342872   2.087   4.715   6.586
  766DIO     O442873   2.132   4.800   6.481
  766DIO    C2442874   1.874   4.841   6.627
  766DIO    C2542875   1.783   4.925   6.719
  766DIO    C2642876   1.745   4.854   6.848
  766DIO     H142877   3.465   4.786   6.555
  766DIO     H242878   3.424   4.790   6.996
  766DIO     H342879   3.247   4.984   6.890
  766DIO     H442880   2.996   4.999   6.864
  766DIO     H542881   2.996   4.647   6.606
  766DIO     H642882   2.387   5.049   6.698
  766DIO     H742883   2.375   4.713   6.417
  766DIO     H842884   2.219   4.978   6.442
  766DIO     H942885   2.182   4.869   6.792
  766DIO    H1042886   2.043   4.973   6.807
  766DIO    H1142887   1.984   4.727   6.774
  766DIO    H1242888   2.026   4.636   6.542
  766DIO    H1342889   2.173   4.666   6.633
  766DIO    H1442890   1.894   4.900   6.537
  766DIO    H1542891   1.817   4.753   6.594
  766DIO    H1642892   1.830   5.021   6.742
  766DIO    H1742893   1.691   4.949   6.663
  766DIO    H1842894   1.701   4.756   6.828
  766DIO    H1942895   1.831   4.841   6.913
  766DIO    H2042896   1.671   4.914   6.902
  767DIO     F142897  10.059   3.507  10.303
  767DIO     C142898   9.981   3.617  10.300
  767DIO     C242899   9.837   3.603  10.292
  767DIO     C342900   9.748   3.721  10.286
  767DIO     C442901   9.814   3.854  10.292
  767DIO     C542902   9.958   3.866  10.300
  767DIO     F242903  10.013   3.988  10.309
  767DIO     C642904  10.042   3.748  10.305
  767DIO     F342905  10.175   3.761  10.311
  767DIO     C742906   9.602   3.708  10.277
  767DIO     C842907   9.525   3.782  10.174
  767DIO     C942908   9.380   3.770  10.165
  767DIO    C1042909   9.307   3.692  10.264
  767DIO    C1142910   9.380   3.612  10.361
  767DIO    C1242911   9.524   3.622  10.368
  767DIO     F442912   9.589   3.552  10.463
  767DIO     O142913   9.175   3.665  10.235
  767DIO    C1342914   9.081   3.656  10.337
  767DIO     O242915   9.080   3.696  10.457
  767DIO    C1442916   8.951   3.605  10.290
  767DIO    C1542917   8.885   3.659  10.169
  767DIO     F542918   8.948   3.752  10.094
  767DIO    C1642919   8.754   3.615  10.125
  767DIO    C1742920   8.679   3.518  10.203
  767DIO    C1842921   8.747   3.450  10.313
  767DIO    C1942922   8.879   3.494  10.356
  767DIO     F642923   8.941   3.417  10.448
  767DIO    C2042924   8.538   3.479  10.165
  767DIO     O342925   8.468   3.580  10.091
  767DIO    C2142926   8.424   3.688  10.173
  767DIO    C2242927   8.336   3.637  10.286
  767DIO    C2342928   8.416   3.532  10.362
  767DIO     O442929   8.461   3.429  10.274
  767DIO    C2442930   8.203   3.576  10.237
  767DIO    C2542931   8.112   3.670  10.156
  767DIO    C2642932   8.074   3.797  10.230
  767DIO     H142933   9.794   3.503  10.290
  767DIO     H242934   9.753   3.944  10.298
  767DIO     H342935   9.576   3.842  10.101
  767DIO     H442936   9.325   3.817  10.085
  767DIO     H542937   9.325   3.550  10.431
  767DIO     H642938   8.716   3.653  10.031
  767DIO     H742939   8.704   3.363  10.360
  767DIO     H842940   8.548   3.394  10.095
  767DIO     H942941   8.511   3.741  10.213
  767DIO    H1042942   8.372   3.759  10.109
  767DIO    H1142943   8.313   3.720  10.354
  767DIO    H1242944   8.355   3.486  10.440
  767DIO    H1342945   8.502   3.578  10.413
  767DIO    H1442946   8.223   3.487  10.175
  767DIO    H1542947   8.146   3.541  10.324
  767DIO    H1642948   8.159   3.695  10.060
  767DIO    H1742949   8.020   3.615  10.130
  767DIO    H1842950   8.030   3.774  10.327
  767DIO    H1942951   8.160   3.862  10.245
  767DIO    H2042952   8.000   3.853  10.171
  768DIO     F142953   2.431   1.161   6.222
  768DIO     C142954   2.353   1.093   6.135
  768DIO     C242955   2.209   1.095   6.152
  768DIO     C342956   2.120   1.021   6.060
  768DIO     C442957   2.186   0.946   5.950
  768DIO     C542958   2.330   0.945   5.935
  768DIO     F242959   2.385   0.880   5.831
  768DIO     C642960   2.414   1.019   6.027
  768DIO     F342961   2.547   1.017   6.013
  768DIO     C742962   1.974   1.021   6.076
  768DIO     C842963   1.897   0.894   6.078
  768DIO     C942964   1.752   0.894   6.093
  768DIO    C1042965   1.679   1.020   6.097
  768DIO    C1142966   1.752   1.146   6.103
  768DIO    C1242967   1.896   1.145   6.090
  768DIO     F442968   1.961   1.263   6.091
  768DIO     O142969   1.547   1.013   6.135
  768DIO    C1342970   1.453   1.100   6.082
  768DIO     O242971   1.452   1.173   5.979
  768DIO    C1442972   1.323   1.092   6.151
  768DIO    C1542973   1.257   0.963   6.179
  768DIO     F542974   1.320   0.847   6.149
  768DIO    C1642975   1.126   0.954   6.241
  768DIO    C1742976   1.051   1.074   6.272
  768DIO    C1842977   1.119   1.203   6.262
  768DIO    C1942978   1.251   1.211   6.201
  768DIO     F642979   1.313   1.331   6.208
  768DIO    C2042980   0.910   1.067   6.327
  768DIO     O342981   0.840   0.947   6.289
  768DIO    C2142982   0.796   0.949   6.154
  768DIO    C2242983   0.708   1.070   6.127
  768DIO    C2342984   0.788   1.194   6.167
  768DIO     O442985   0.833   1.184   6.302
  768DIO    C2442986   0.575   1.067   6.206
  768DIO    C2542987   0.484   0.946   6.179
  768DIO    C2642988   0.446   0.930   6.032
  768DIO     H142989   2.166   1.153   6.233
  768DIO     H242990   2.125   0.898   5.874
  768DIO     H342991   1.948   0.799   6.072
  768DIO     H442992   1.697   0.802   6.102
  768DIO     H542993   1.697   1.239   6.112
  768DIO     H642994   1.088   0.856   6.266
  768DIO     H742995   1.076   1.292   6.304
  768DIO     H842996   0.920   1.061   6.436
  768DIO     H942997   0.883   0.950   6.087
  768DIO    H1042998   0.744   0.856   6.134
  768DIO    H1142999   0.685   1.076   6.020
  768DIO    H1243000   0.727   1.284   6.158
  768DIO    H1343001   0.874   1.207   6.100
  768DIO    H1443002   0.595   1.070   6.314
  768DIO    H1543003   0.518   1.158   6.182
  768DIO    H1643004   0.531   0.854   6.215
  768DIO    H1743005   0.392   0.958   6.238
  768DIO    H1843006   0.402   1.022   5.993
  768DIO    H1943007   0.532   0.903   5.971
  768DIO    H2043008   0.372   0.850   6.022
  769DIO     F143009   2.034   7.005   5.470
  769DIO     C143010   1.956   7.081   5.550
  769DIO     C243011   1.812   7.077   5.534
  769DIO     C343012   1.723   7.161   5.617
  769DIO     C443013   1.789   7.246   5.720
  769DIO     C543014   1.933   7.248   5.734
  769DIO     F243015   1.988   7.323   5.831
  769DIO     C643016   2.017   7.165   5.650
  769DIO     F343017   2.151   7.169   5.664
  769DIO     C743018   1.577   7.159   5.601
  769DIO     C843019   1.500   7.285   5.587
  769DIO     C943020   1.355   7.283   5.572
  769DIO    C1043021   1.282   7.158   5.581
  769DIO    C1143022   1.355   7.032   5.587
  769DIO    C1243023   1.499   7.034   5.599
  769DIO     F443024   1.564   6.916   5.610
  769DIO     O143025   1.150   7.161   5.542
  769DIO    C1343026   1.056   7.080   5.603
  769DIO     O243027   1.055   7.017   5.713
  769DIO    C1443028   0.927   7.080   5.534
  769DIO    C1543029   0.860   7.206   5.494
  769DIO     F543030   0.923   7.324   5.512
  769DIO    C1643031   0.730   7.209   5.431
  769DIO    C1743032   0.654   7.086   5.411
  769DIO    C1843033   0.723   6.960   5.434
  769DIO    C1943034   0.854   6.957   5.496
  769DIO     F643035   0.917   6.837   5.501
  769DIO    C2043036   0.513   7.089   5.356
  769DIO     O343037   0.443   7.211   5.382
  769DIO    C2143038   0.400   7.222   5.517
  769DIO    C2243039   0.311   7.105   5.556
  769DIO    C2343040   0.392   6.978   5.529
  769DIO     O443041   0.436   6.974   5.393
  769DIO    C2443042   0.178   7.100   5.477
  769DIO    C2543043   0.087   7.223   5.492
  769DIO    C2643044   0.049   7.254   5.636
  769DIO     H143045   1.769   7.012   5.458
  769DIO     H243046   1.728   7.301   5.790
  769DIO     H343047   1.551   7.380   5.583
  769DIO     H443048   1.300   7.374   5.554
  769DIO     H543049   1.301   6.939   5.588
  769DIO     H643050   0.691   7.304   5.396
  769DIO     H743051   0.680   6.866   5.401
  769DIO     H843052   0.523   7.083   5.247
  769DIO     H943053   0.486   7.229   5.584
  769DIO    H1043054   0.347   7.317   5.527
  769DIO    H1143055   0.288   7.110   5.663
  769DIO    H1243056   0.330   6.889   5.546
  769DIO    H1343057   0.478   6.971   5.596
  769DIO    H1443058   0.198   7.086   5.370
  769DIO    H1543059   0.122   7.012   5.509
  769DIO    H1643060   0.135   7.311   5.447
  769DIO    H1743061  -0.004   7.205   5.434
  769DIO    H1843062   0.005   7.166   5.685
  769DIO    H1943063   0.135   7.286   5.694
  769DIO    H2043064  -0.025   7.335   5.638
  770DIO     F143065   8.690   5.798   9.329
  770DIO     C143066   8.612   5.869   9.244
  770DIO     C243067   8.468   5.853   9.250
  770DIO     C343068   8.380   5.927   9.158
  770DIO     C443069   8.445   6.019   9.062
  770DIO     C543070   8.589   6.033   9.058
  770DIO     F243071   8.645   6.121   8.972
  770DIO     C643072   8.673   5.959   9.149
  770DIO     F343073   8.807   5.972   9.144
  770DIO     C743074   8.233   5.911   9.161
  770DIO     C843075   8.156   5.884   9.038
  770DIO     C943076   8.011   5.869   9.041
  770DIO    C1043077   7.939   5.891   9.165
  770DIO    C1143078   8.011   5.911   9.289
  770DIO    C1243079   8.155   5.923   9.286
  770DIO     F443080   8.220   5.948   9.402
  770DIO     O143081   7.807   5.852   9.166
  770DIO    C1343082   7.712   5.922   9.240
  770DIO     O243083   7.711   6.038   9.289
  770DIO    C1443084   7.583   5.853   9.247
  770DIO    C1543085   7.517   5.799   9.126
  770DIO     F543086   7.579   5.804   9.007
  770DIO    C1643087   7.386   5.736   9.130
  770DIO    C1743088   7.310   5.731   9.255
  770DIO    C1843089   7.379   5.768   9.378
  770DIO    C1943090   7.510   5.829   9.374
  770DIO     F643091   7.573   5.847   9.492
  770DIO    C2043092   7.169   5.676   9.258
  770DIO     O343093   7.100   5.688   9.134
  770DIO    C2143094   7.056   5.820   9.108
  770DIO    C2243095   6.967   5.872   9.220
  770DIO    C2343096   7.048   5.859   9.349
  770DIO     O443097   7.092   5.725   9.368
  770DIO    C2443098   6.834   5.794   9.233
  770DIO    C2543099   6.744   5.796   9.110
  770DIO    C2643100   6.705   5.935   9.063
  770DIO     H143101   8.426   5.786   9.323
  770DIO     H243102   8.384   6.083   8.998
  770DIO     H343103   8.208   5.869   8.944
  770DIO     H443104   7.956   5.840   8.952
  770DIO     H543105   7.957   5.922   9.382
  770DIO     H643106   7.348   5.691   9.040
  770DIO     H743107   7.336   5.745   9.475
  770DIO     H843108   7.179   5.568   9.276
  770DIO     H943109   7.143   5.886   9.094
  770DIO    H1043110   7.003   5.820   9.012
  770DIO    H1143111   6.945   5.978   9.203
  770DIO    H1243112   6.987   5.887   9.436
  770DIO    H1343113   7.134   5.927   9.348
  770DIO    H1443114   6.854   5.689   9.259
  770DIO    H1543115   6.778   5.836   9.317
  770DIO    H1643116   6.791   5.741   9.027
  770DIO    H1743117   6.652   5.740   9.134
  770DIO    H1843118   6.661   5.993   9.145
  770DIO    H1943119   6.792   5.990   9.024
  770DIO    H2043120   6.632   5.929   8.982
  771DIO     F143121   9.502   0.157   4.596
  771DIO     C143122   9.425   0.267   4.592
  771DIO     C243123   9.280   0.252   4.584
  771DIO     C343124   9.192   0.370   4.577
  771DIO     C443125   9.257   0.503   4.581
  771DIO     C543126   9.401   0.515   4.589
  771DIO     F243127   9.457   0.638   4.597
  771DIO     C643128   9.485   0.398   4.595
  771DIO     F343129   9.619   0.410   4.601
  771DIO     C743130   9.045   0.357   4.567
  771DIO     C843131   8.968   0.430   4.464
  771DIO     C943132   8.823   0.417   4.455
  771DIO    C1043133   8.751   0.341   4.555
  771DIO    C1143134   8.823   0.262   4.653
  771DIO    C1243135   8.967   0.272   4.660
  771DIO     F443136   9.032   0.202   4.755
  771DIO     O143137   8.619   0.314   4.526
  771DIO    C1343138   8.524   0.306   4.628
  771DIO     O243139   8.523   0.347   4.747
  771DIO    C1443140   8.395   0.254   4.582
  771DIO    C1543141   8.329   0.307   4.461
  771DIO     F543142   8.391   0.399   4.384
  771DIO    C1643143   8.198   0.262   4.417
  771DIO    C1743144   8.122   0.166   4.496
  771DIO    C1843145   8.191   0.100   4.606
  771DIO    C1943146   8.323   0.144   4.649
  771DIO     F643147   8.385   0.068   4.742
  771DIO    C2043148   7.981   0.127   4.458
  771DIO     O343149   7.912   0.227   4.383
  771DIO    C2143150   7.868   0.336   4.464
  771DIO    C2243151   7.779   0.287   4.578
  771DIO    C2343152   7.860   0.182   4.655
  771DIO     O443153   7.904   0.078   4.568
  771DIO    C2443154   7.646   0.225   4.529
  771DIO    C2543155   7.556   0.317   4.447
  771DIO    C2643156   7.517   0.445   4.519
  771DIO     H143157   9.238   0.152   4.583
  771DIO     H243158   9.197   0.593   4.586
  771DIO     H343159   9.020   0.489   4.390
  771DIO     H443160   8.768   0.464   4.375
  771DIO     H543161   8.769   0.200   4.723
  771DIO     H643162   8.160   0.299   4.322
  771DIO     H743163   8.148   0.013   4.654
  771DIO     H843164   7.991   0.041   4.389
  771DIO     H943165   7.955   0.390   4.503
  771DIO    H1043166   7.815   0.406   4.399
  771DIO    H1143167   7.757   0.370   4.645
  771DIO    H1243168   7.799   0.136   4.733
  771DIO    H1343169   7.946   0.228   4.705
  771DIO    H1443170   7.666   0.135   4.468
  771DIO    H1543171   7.590   0.190   4.616
  771DIO    H1643172   7.603   0.342   4.351
  771DIO    H1743173   7.464   0.262   4.422
  771DIO    H1843174   7.473   0.424   4.617
  771DIO    H1943175   7.604   0.511   4.534
  771DIO    H2043176   7.444   0.501   4.461
  772DIO     F143177   9.243   9.576   2.591
  772DIO     C143178   9.166   9.647   2.675
  772DIO     C243179   9.022   9.644   2.658
  772DIO     C343180   8.933   9.722   2.747
  772DIO     C443181   8.998   9.801   2.854
  772DIO     C543182   9.143   9.802   2.868
  772DIO     F243183   9.198   9.872   2.969
  772DIO     C643184   9.226   9.725   2.780
  772DIO     F343185   9.360   9.728   2.794
  772DIO     C743186   8.787   9.722   2.731
  772DIO     C843187   8.709   9.848   2.724
  772DIO     C943188   8.565   9.847   2.709
  772DIO    C1043189   8.492   9.722   2.710
  772DIO    C1143190   8.565   9.596   2.709
  772DIO    C1243191   8.709   9.597   2.721
  772DIO     F443192   8.774   9.478   2.725
  772DIO     O143193   8.360   9.727   2.671
  772DIO    C1343194   8.265   9.642   2.728
  772DIO     O243195   8.265   9.574   2.834
  772DIO    C1443196   8.136   9.647   2.659
  772DIO    C1543197   8.070   9.775   2.626
  772DIO     F543198   8.133   9.892   2.651
  772DIO    C1643199   7.939   9.782   2.563
  772DIO    C1743200   7.863   9.660   2.537
  772DIO    C1843201   7.932   9.532   2.552
  772DIO    C1943202   8.064   9.526   2.613
  772DIO     F643203   8.126   9.406   2.611
  772DIO    C2043204   7.723   9.666   2.482
  772DIO     O343205   7.653   9.786   2.515
  772DIO    C2143206   7.609   9.790   2.650
  772DIO    C2243207   7.520   9.670   2.682
  772DIO    C2343208   7.601   9.545   2.647
  772DIO     O443209   7.645   9.549   2.512
  772DIO    C2443210   7.388   9.670   2.603
  772DIO    C2543211   7.297   9.792   2.625
  772DIO    C2643212   7.259   9.814   2.771
  772DIO     H143213   8.979   9.583   2.579
  772DIO     H243214   8.938   9.853   2.928
  772DIO     H343215   8.761   9.943   2.725
  772DIO     H443216   8.510   9.939   2.696
  772DIO     H543217   8.510   9.502   2.704
  772DIO     H643218   7.901   9.879   2.534
  772DIO     H743219   7.889   9.441   2.514
  772DIO     H843220   7.732   9.667   2.373
  772DIO     H943221   7.696   9.792   2.717
  772DIO    H1043222   7.557   9.884   2.666
  772DIO    H1143223   7.498   9.669   2.789
  772DIO    H1243224   7.540   9.455   2.660
  772DIO    H1343225   7.687   9.534   2.714
  772DIO    H1443226   7.408   9.662   2.495
  772DIO    H1543227   7.331   9.580   2.630
  772DIO    H1643228   7.344   9.882   2.585
  772DIO    H1743229   7.205   9.777   2.567
  772DIO    H1843230   7.215   9.724   2.814
  772DIO    H1943231   7.345   9.843   2.831
  772DIO    H2043232   7.185   9.895   2.778
  773DIO     F143233   5.221  10.160   9.038
  773DIO     C143234   5.143  10.149   9.148
  773DIO     C243235   4.999  10.159   9.134
  773DIO     C343236   4.910  10.150   9.252
  773DIO     C443237   4.976  10.127   9.383
  773DIO     C543238   5.120  10.118   9.394
  773DIO     F243239   5.175  10.093   9.514
  773DIO     C643240   5.204  10.128   9.277
  773DIO     F343241   5.337  10.120   9.289
  773DIO     C743242   4.764  10.161   9.240
  773DIO     C843243   4.687  10.253   9.326
  773DIO     C943244   4.542  10.263   9.315
  773DIO    C1043245   4.469  10.175   9.226
  773DIO    C1143246   4.542  10.089   9.134
  773DIO    C1243247   4.686  10.080   9.144
  773DIO     F443248   4.751   9.995   9.062
  773DIO     O143249   4.337  10.207   9.203
  773DIO    C1343250   4.243  10.107   9.181
  773DIO     O243251   4.242   9.984   9.205
  773DIO    C1443252   4.113  10.160   9.136
  773DIO    C1543253   4.047  10.273   9.206
  773DIO     F543254   4.110  10.336   9.307
  773DIO    C1643255   3.916  10.323   9.167
  773DIO    C1743256   3.841  10.257   9.061
  773DIO    C1843257   3.909  10.157   8.980
  773DIO    C1943258   4.041  10.109   9.018
  773DIO     F643259   4.103  10.027   8.930
  773DIO    C2043260   3.700  10.301   9.027
  773DIO     O343261   3.630  10.361   9.137
  773DIO    C2143262   3.586  10.266   9.233
  773DIO    C2243263   3.498  10.160   9.169
  773DIO    C2343264   3.578  10.098   9.055
  773DIO     O443265   3.623  10.198   8.964
  773DIO    C2443266   3.365  10.217   9.115
  773DIO    C2543267   3.274  10.285   9.217
  773DIO    C2643268   3.236  10.196   9.334
  773DIO     H143269   4.956  10.173   9.035
  773DIO     H243270   4.915  10.110   9.471
  773DIO     H343271   4.738  10.318   9.396
  773DIO     H443272   4.487  10.337   9.372
  773DIO     H543273   4.487  10.027   9.064
  773DIO     H643274   3.878  10.411   9.216
  773DIO     H743275   3.866  10.122   8.887
  773DIO     H843276   3.710  10.380   8.952
  773DIO     H943277   3.673  10.219   9.281
  773DIO    H1043278   3.534  10.320   9.312
  773DIO    H1143279   3.475  10.082   9.243
  773DIO    H1243280   3.517  10.026   8.999
  773DIO    H1343281   3.664  10.042   9.094
  773DIO    H1443282   3.385  10.289   9.034
  773DIO    H1543283   3.308  10.135   9.068
  773DIO    H1643284   3.321  10.377   9.255
  773DIO    H1743285   3.182  10.317   9.166
  773DIO    H1843286   3.192  10.102   9.300
  773DIO    H1943287   3.322  10.173   9.397
  773DIO    H2043288   3.162  10.247   9.398
  774DIO     F143289   3.533   2.082   5.800
  774DIO     C143290   3.456   2.031   5.703
  774DIO     C243291   3.312   2.030   5.720
  774DIO     C343292   3.223   1.972   5.617
  774DIO     C443293   3.288   1.918   5.495
  774DIO     C543294   3.433   1.920   5.481
  774DIO     F243295   3.488   1.873   5.367
  774DIO     C643296   3.516   1.976   5.584
  774DIO     F343297   3.650   1.977   5.570
  774DIO     C743298   3.077   1.969   5.632
  774DIO     C843299   2.999   1.845   5.612
  774DIO     C943300   2.855   1.842   5.627
  774DIO    C1043301   2.782   1.965   5.653
  774DIO    C1143302   2.855   2.088   5.681
  774DIO    C1243303   2.999   2.090   5.668
  774DIO     F443304   3.064   2.206   5.689
  774DIO     O143305   2.650   1.951   5.689
  774DIO    C1343306   2.555   2.046   5.652
  774DIO     O243307   2.555   2.136   5.563
  774DIO    C1443308   2.426   2.027   5.719
  774DIO    C1543309   2.360   1.895   5.724
  774DIO     F543310   2.423   1.786   5.674
  774DIO    C1643311   2.229   1.875   5.783
  774DIO    C1743312   2.153   1.988   5.835
  774DIO    C1843313   2.222   2.116   5.847
  774DIO    C1943314   2.354   2.136   5.789
  774DIO     F643315   2.416   2.252   5.816
  774DIO    C2043316   2.013   1.971   5.887
  774DIO     O343317   1.943   1.860   5.830
  774DIO    C2143318   1.899   1.886   5.697
  774DIO    C2243319   1.810   2.009   5.691
  774DIO    C2343320   1.891   2.124   5.751
  774DIO     O443321   1.935   2.092   5.883
  774DIO    C2443322   1.678   1.992   5.768
  774DIO    C2543323   1.587   1.878   5.721
  774DIO    C2643324   1.549   1.888   5.574
  774DIO     H143325   3.269   2.073   5.810
  774DIO     H243326   3.228   1.883   5.412
  774DIO     H343327   3.051   1.752   5.591
  774DIO     H443328   2.800   1.749   5.620
  774DIO     H543329   2.800   2.178   5.705
  774DIO     H643330   2.191   1.774   5.791
  774DIO     H743331   2.179   2.198   5.904
  774DIO     H843332   2.022   1.947   5.994
  774DIO     H943333   1.986   1.898   5.631
  774DIO    H1043334   1.847   1.797   5.661
  774DIO    H1143335   1.788   2.033   5.587
  774DIO    H1243336   1.830   2.215   5.758
  774DIO    H1343337   1.977   2.149   5.688
  774DIO    H1443338   1.698   1.977   5.875
  774DIO    H1543339   1.621   2.086   5.761
  774DIO    H1643340   1.634   1.781   5.740
  774DIO    H1743341   1.495   1.880   5.781
  774DIO    H1843342   1.505   1.985   5.550
  774DIO    H1943343   1.635   1.872   5.509
  774DIO    H2043344   1.475   1.810   5.549
  775DIO     F143345   2.764   7.437  10.435
  775DIO     C143346   2.686   7.445  10.545
  775DIO     C243347   2.542   7.453  10.530
  775DIO     C343348   2.454   7.463  10.647
  775DIO     C443349   2.519   7.463  10.780
  775DIO     C543350   2.663   7.456  10.793
  775DIO     F243351   2.719   7.452  10.916
  775DIO     C643352   2.747   7.446  10.676
  775DIO     F343353   2.881   7.440  10.689
  775DIO     C743354   2.307   7.472  10.634
  775DIO     C843355   2.230   7.578  10.704
  775DIO     C943356   2.085   7.586  10.691
  775DIO    C1043357   2.013   7.484  10.617
  775DIO    C1143358   2.085   7.384  10.542
  775DIO    C1243359   2.229   7.377  10.552
  775DIO     F443360   2.294   7.279  10.486
  775DIO     O143361   1.881   7.512  10.590
  775DIO    C1343362   1.786   7.410  10.585
  775DIO     O243363   1.785   7.292  10.629
  775DIO    C1443364   1.657   7.455  10.532
  775DIO    C1543365   1.591   7.577  10.581
  775DIO     F543366   1.653   7.657  10.671
  775DIO    C1643367   1.460   7.620  10.535
  775DIO    C1743368   1.384   7.538  10.441
  775DIO    C1843369   1.453   7.426  10.378
  775DIO    C1943370   1.584   7.384  10.424
  775DIO     F643371   1.647   7.289  10.351
  775DIO    C2043372   1.243   7.575  10.401
  775DIO     O343373   1.174   7.652  10.499
  775DIO    C2143374   1.130   7.575  10.610
  775DIO    C2243375   1.041   7.460  10.564
  775DIO    C2343376   1.122   7.379  10.462
  775DIO     O443377   1.166   7.463  10.356
  775DIO    C2443378   0.908   7.507  10.501
  775DIO    C2543379   0.818   7.591  10.591
  775DIO    C2643380   0.779   7.523  10.721
  775DIO     H143381   2.500   7.450  10.430
  775DIO     H243382   2.458   7.461  10.870
  775DIO     H343383   2.282   7.653  10.761
  775DIO     H443384   2.030   7.668  10.735
  775DIO     H543385   2.031   7.311  10.483
  775DIO     H643386   1.422   7.715  10.569
  775DIO     H743387   1.410   7.375  10.293
  775DIO     H843388   1.253   7.640  10.313
  775DIO     H943389   1.217   7.537  10.665
  775DIO    H1043390   1.077   7.642  10.678
  775DIO    H1143391   1.019   7.395  10.650
  775DIO    H1243392   1.061   7.299  10.419
  775DIO    H1343393   1.208   7.331  10.510
  775DIO    H1443394   0.928   7.564  10.409
  775DIO    H1543395   0.852   7.418  10.469
  775DIO    H1643396   0.865   7.688  10.613
  775DIO    H1743397   0.726   7.614  10.535
  775DIO    H1843398   0.735   7.424  10.703
  775DIO    H1943399   0.866   7.511  10.787
  775DIO    H2043400   0.706   7.583  10.775
  776DIO     F143401   3.328   2.095   9.937
  776DIO     C143402   3.251   2.114  10.045
  776DIO     C243403   3.107   2.120  10.029
  776DIO     C343404   3.018   2.143  10.145
  776DIO     C443405   3.083   2.158  10.278
  776DIO     C543406   3.228   2.151  10.291
  776DIO     F243407   3.283   2.161  10.413
  776DIO     C643408   3.311   2.129  10.175
  776DIO     F343409   3.445   2.124  10.189
  776DIO     C743410   2.872   2.151  10.131
  776DIO     C843411   2.794   2.263  10.189
  776DIO     C943412   2.650   2.270  10.176
  776DIO    C1043413   2.577   2.161  10.113
  776DIO    C1143414   2.650   2.053  10.049
  776DIO    C1243415   2.794   2.047  10.060
  776DIO     F443416   2.859   1.943  10.004
  776DIO     O143417   2.445   2.185  10.083
  776DIO    C1343418   2.350   2.083  10.089
  776DIO     O243419   2.350   1.971  10.146
  776DIO    C1443420   2.221   2.122  10.031
  776DIO    C1543421   2.155   2.250  10.067
  776DIO     F543422   2.218   2.338  10.148
  776DIO    C1643423   2.024   2.287  10.017
  776DIO    C1743424   1.948   2.195   9.932
  776DIO    C1843425   2.017   2.077   9.882
  776DIO    C1943426   2.149   2.041   9.931
  776DIO     F643427   2.211   1.938   9.869
  776DIO    C2043428   1.808   2.227   9.888
  776DIO     O343429   1.738   2.315   9.977
  776DIO    C2143430   1.694   2.250  10.096
  776DIO    C2243431   1.605   2.131  10.063
  776DIO    C2343432   1.686   2.040   9.970
  776DIO     O443433   1.730   2.111   9.855
  776DIO    C2443434   1.473   2.171   9.995
  776DIO    C2543435   1.382   2.264  10.075
  776DIO    C2643436   1.344   2.210  10.212
  776DIO     H143437   3.064   2.107   9.931
  776DIO     H243438   3.023   2.165  10.367
  776DIO     H343439   2.846   2.345  10.238
  776DIO     H443440   2.595   2.356  10.210
  776DIO     H543441   2.595   1.975   9.998
  776DIO     H643442   1.986   2.386  10.040
  776DIO     H743443   1.974   2.017   9.802
  776DIO     H843444   1.817   2.283   9.794
  776DIO     H943445   1.781   2.219  10.155
  776DIO    H1043446   1.642   2.324  10.157
  776DIO    H1143447   1.583   2.076  10.155
  776DIO    H1243448   1.625   1.956   9.936
  776DIO    H1343449   1.772   1.997  10.023
  776DIO    H1443450   1.493   2.218   9.898
  776DIO    H1543451   1.416   2.079   9.973
  776DIO    H1643452   1.429   2.363  10.087
  776DIO    H1743453   1.290   2.281  10.018
  776DIO    H1843454   1.300   2.111  10.204
  776DIO    H1943455   1.430   2.205  10.279
  776DIO    H2043456   1.270   2.276  10.259
  777DIO     F143457   3.070   2.106   1.305
  777DIO     C143458   2.992   2.183   1.227
  777DIO     C243459   2.848   2.167   1.231
  777DIO     C343460   2.759   2.248   1.145
  777DIO     C443461   2.825   2.347   1.056
  777DIO     C543462   2.969   2.361   1.053
  777DIO     F243463   3.024   2.455   0.974
  777DIO     C643464   3.053   2.280   1.139
  777DIO     F343465   3.186   2.294   1.134
  777DIO     C743466   2.613   2.232   1.147
  777DIO     C843467   2.536   2.213   1.022
  777DIO     C943468   2.391   2.198   1.024
  777DIO    C1043469   2.318   2.211   1.149
  777DIO    C1143470   2.391   2.222   1.274
  777DIO    C1243471   2.535   2.234   1.272
  777DIO     F443472   2.600   2.249   1.389
  777DIO     O143473   2.186   2.172   1.147
  777DIO    C1343474   2.092   2.237   1.226
  777DIO     O243475   2.091   2.348   1.284
  777DIO    C1443476   1.963   2.167   1.228
  777DIO    C1543477   1.896   2.122   1.104
  777DIO     F543478   1.959   2.136   0.985
  777DIO    C1643479   1.765   2.059   1.103
  777DIO    C1743480   1.690   2.044   1.227
  777DIO    C1843481   1.758   2.072   1.352
  777DIO    C1943482   1.890   2.133   1.353
  777DIO     F643483   1.953   2.143   1.472
  777DIO    C2043484   1.549   1.989   1.226
  777DIO     O343485   1.479   2.010   1.103
  777DIO    C2143486   1.436   2.145   1.087
  777DIO    C2243487   1.347   2.188   1.203
  777DIO    C2343488   1.427   2.165   1.331
  777DIO     O443489   1.472   2.030   1.340
  777DIO    C2443490   1.214   2.109   1.210
  777DIO    C2543491   1.123   2.120   1.087
  777DIO    C2643492   1.085   2.263   1.051
  777DIO     H143493   2.805   2.094   1.299
  777DIO     H243494   2.764   2.415   0.998
  777DIO     H343495   2.587   2.205   0.927
  777DIO     H443496   2.336   2.176   0.933
  777DIO     H543497   2.336   2.226   1.368
  777DIO     H643498   1.727   2.021   1.009
  777DIO     H743499   1.716   2.042   1.447
  777DIO     H843500   1.559   1.881   1.235
  777DIO     H943501   1.522   2.211   1.078
  777DIO    H1043502   1.383   2.152   0.991
  777DIO    H1143503   1.324   2.295   1.194
  777DIO    H1243504   1.366   2.186   1.419
  777DIO    H1343505   1.514   2.233   1.335
  777DIO    H1443506   1.234   2.003   1.228
  777DIO    H1543507   1.157   2.145   1.297
  777DIO    H1643508   1.171   2.072   1.000
  777DIO    H1743509   1.031   2.063   1.107
  777DIO    H1843510   1.041   2.315   1.137
  777DIO    H1943511   1.171   2.320   1.016
  777DIO    H2043512   1.011   2.262   0.970
  778DIO     F143513   8.273   4.029  -0.076
  778DIO     C143514   8.196   4.042  -0.185
  778DIO     C243515   8.051   4.032  -0.172
  778DIO     C343516   7.963   4.045  -0.290
  778DIO     C443517   8.028   4.070  -0.420
  778DIO     C543518   8.172   4.080  -0.431
  778DIO     F243519   8.228   4.108  -0.551
  778DIO     C643520   8.256   4.067  -0.314
  778DIO     F343521   8.390   4.075  -0.326
  778DIO     C743522   7.816   4.033  -0.279
  778DIO     C843523   7.739   3.943  -0.367
  778DIO     C943524   7.594   3.932  -0.356
  778DIO    C1043525   7.522   4.018  -0.264
  778DIO    C1143526   7.594   4.102  -0.171
  778DIO    C1243527   7.738   4.111  -0.180
  778DIO     F443528   7.803   4.193  -0.095
  778DIO     O143529   7.390   3.986  -0.242
  778DIO    C1343530   7.295   4.085  -0.218
  778DIO     O243531   7.294   4.209  -0.239
  778DIO    C1443532   7.166   4.030  -0.175
  778DIO    C1543533   7.100   3.920  -0.247
  778DIO     F543534   7.162   3.859  -0.350
  778DIO    C1643535   6.969   3.869  -0.210
  778DIO    C1743536   6.893   3.932  -0.102
  778DIO    C1843537   6.962   4.029  -0.018
  778DIO    C1943538   7.094   4.079  -0.055
  778DIO     F643539   7.156   4.158   0.035
  778DIO    C2043540   6.752   3.888  -0.069
  778DIO     O343541   6.683   3.830  -0.180
  778DIO    C2143542   6.639   3.928  -0.274
  778DIO    C2243543   6.550   4.032  -0.207
  778DIO    C2343544   6.631   4.091  -0.092
  778DIO     O443545   6.675   3.988  -0.003
  778DIO    C2443546   6.417   3.973  -0.154
  778DIO    C2543547   6.327   3.908  -0.259
  778DIO    C2643548   6.288   4.000  -0.374
  778DIO     H143549   8.009   4.015  -0.074
  778DIO     H243550   7.968   4.090  -0.508
  778DIO     H343551   7.791   3.880  -0.438
  778DIO     H443552   7.539   3.860  -0.415
  778DIO     H543553   7.540   4.162  -0.099
  778DIO     H643554   6.931   3.782  -0.261
  778DIO     H743555   6.919   4.063   0.075
  778DIO     H843556   6.762   3.806   0.004
  778DIO     H943557   6.726   3.975  -0.321
  778DIO    H1043558   6.586   3.876  -0.355
  778DIO    H1143559   6.528   4.112  -0.279
  778DIO    H1243560   6.570   4.161  -0.034
  778DIO    H1343561   6.717   4.148  -0.129
  778DIO    H1443562   6.437   3.899  -0.076
  778DIO    H1543563   6.361   4.054  -0.106
  778DIO    H1643564   6.374   3.818  -0.299
  778DIO    H1743565   6.235   3.875  -0.209
  778DIO    H1843566   6.244   4.093  -0.336
  778DIO    H1943567   6.375   4.025  -0.436
  778DIO    H2043568   6.215   3.951  -0.438
  779DIO     F143569   1.149   2.842   5.976
  779DIO     C143570   1.072   2.951   5.985
  779DIO     C243571   0.928   2.938   5.975
  779DIO     C343572   0.839   3.056   5.982
  779DIO     C443573   0.904   3.187   6.002
  779DIO     C543574   1.049   3.198   6.011
  779DIO     F243575   1.104   3.319   6.033
  779DIO     C643576   1.132   3.081   6.003
  779DIO     F343577   1.266   3.093   6.011
  779DIO     C743578   0.693   3.044   5.971
  779DIO     C843579   0.615   3.128   5.877
  779DIO     C943580   0.471   3.117   5.867
  779DIO    C1043581   0.398   3.029   5.957
  779DIO    C1143582   0.471   2.939   6.045
  779DIO    C1243583   0.615   2.949   6.053
  779DIO     F443584   0.680   2.868   6.140
  779DIO     O143585   0.266   3.006   5.925
  779DIO    C1343586   0.171   2.986   6.026
  779DIO     O243587   0.171   3.012   6.149
  779DIO    C1443588   0.042   2.940   5.973
  779DIO    C1543589  -0.024   3.007   5.859
  779DIO     F543590   0.039   3.107   5.794
  779DIO    C1643591  -0.155   2.968   5.810
  779DIO    C1743592  -0.231   2.863   5.878
  779DIO    C1843593  -0.162   2.784   5.979
  779DIO    C1943594  -0.030   2.823   6.027
  779DIO     F643595   0.032   2.737   6.110
  779DIO    C2043596  -0.371   2.828   5.835
  779DIO     O343597  -0.441   2.937   5.773
  779DIO    C2143598  -0.485   3.035   5.866
  779DIO    C2243599  -0.574   2.973   5.973
  779DIO    C2343600  -0.493   2.860   6.038
  779DIO     O443601  -0.449   2.767   5.939
  779DIO    C2443602  -0.706   2.917   5.917
  779DIO    C2543603  -0.797   3.019   5.847
  779DIO    C2643604  -0.835   3.137   5.934
  779DIO     H143605   0.885   2.839   5.962
  779DIO     H243606   0.844   3.276   6.017
  779DIO     H343607   0.667   3.196   5.811
  779DIO     H443608   0.416   3.173   5.792
  779DIO     H543609   0.416   2.870   6.108
  779DIO     H643610  -0.193   3.015   5.721
  779DIO     H743611  -0.205   2.692   6.017
  779DIO     H843612  -0.362   2.752   5.757
  779DIO     H943613  -0.398   3.084   5.912
  779DIO    H1043614  -0.537   3.113   5.810
  779DIO    H1143615  -0.596   3.048   6.050
  779DIO    H1243616  -0.554   2.805   6.110
  779DIO    H1343617  -0.407   2.900   6.092
  779DIO    H1443618  -0.686   2.835   5.847
  779DIO    H1543619  -0.763   2.873   6.000
  779DIO    H1643620  -0.750   3.055   5.755
  779DIO    H1743621  -0.889   2.967   5.816
  779DIO    H1843622  -0.879   3.104   6.029
  779DIO    H1943623  -0.749   3.201   5.956
  779DIO    H2043624  -0.909   3.199   5.882
  780DIO     F143625   7.174   3.486   9.915
  780DIO     C143626   7.097   3.446  10.017
  780DIO     C243627   6.952   3.459  10.007
  780DIO     C343628   6.864   3.418  10.118
  780DIO     C443629   6.929   3.361  10.238
  780DIO     C543630   7.073   3.349  10.246
  780DIO     F243631   7.129   3.292  10.355
  780DIO     C643632   7.157   3.390  10.136
  780DIO     F343633   7.291   3.379  10.145
  780DIO     C743634   6.717   3.432  10.110
  780DIO     C843635   6.640   3.497  10.218
  780DIO     C943636   6.495   3.510  10.210
  780DIO    C1043637   6.423   3.450  10.100
  780DIO    C1143638   6.495   3.392   9.989
  780DIO    C1243639   6.639   3.381   9.995
  780DIO     F443640   6.704   3.322   9.893
  780DIO     O143641   6.291   3.487  10.087
  780DIO    C1343642   6.196   3.397  10.039
  780DIO     O243643   6.195   3.271  10.028
  780DIO    C1443644   6.067   3.460  10.010
  780DIO    C1543645   6.001   3.550  10.107
  780DIO     F543646   6.063   3.583  10.222
  780DIO    C1643647   5.870   3.608  10.084
  780DIO    C1743648   5.794   3.574   9.964
  780DIO    C1843649   5.863   3.500   9.859
  780DIO    C1943650   5.995   3.443   9.882
  780DIO     F643651   6.057   3.388   9.775
  780DIO    C2043652   5.653   3.625   9.943
  780DIO     O343653   5.584   3.653  10.065
  780DIO    C2143654   5.540   3.535  10.132
  780DIO    C2243655   5.451   3.451  10.041
  780DIO    C2343656   5.532   3.422   9.915
  780DIO     O443657   5.576   3.543   9.854
  780DIO    C2443658   5.318   3.520  10.004
  780DIO    C2543659   5.228   3.558  10.122
  780DIO    C2643660   5.189   3.440  10.210
  780DIO     H143661   6.910   3.500   9.916
  780DIO     H243662   6.869   3.320  10.318
  780DIO     H343663   6.692   3.541  10.302
  780DIO     H443664   6.440   3.566  10.285
  780DIO     H543665   6.441   3.352   9.904
  780DIO     H643666   5.832   3.680  10.155
  780DIO     H743667   5.820   3.491   9.760
  780DIO     H843668   5.663   3.722   9.893
  780DIO     H943669   5.627   3.477  10.166
  780DIO    H1043670   5.487   3.566  10.223
  780DIO    H1143671   5.429   3.356  10.091
  780DIO    H1243672   5.471   3.369   9.841
  780DIO    H1343673   5.618   3.358   9.937
  780DIO    H1443674   5.338   3.612   9.947
  780DIO    H1543675   5.262   3.454   9.938
  780DIO    H1643676   5.275   3.636  10.183
  780DIO    H1743677   5.136   3.603  10.082
  780DIO    H1843678   5.145   3.359  10.151
  780DIO    H1943679   5.276   3.401  10.264
  780DIO    H2043680   5.116   3.472  10.285
  781DIO     F143681   2.858   0.676  -0.462
  781DIO     C143682   2.781   0.783  -0.486
  781DIO     C243683   2.637   0.767  -0.491
  781DIO     C343684   2.548   0.882  -0.519
  781DIO     C443685   2.613   1.013  -0.539
  781DIO     C543686   2.758   1.027  -0.533
  781DIO     F243687   2.813   1.149  -0.548
  781DIO     C643688   2.841   0.912  -0.506
  781DIO     F343689   2.975   0.926  -0.502
  781DIO     C743690   2.402   0.867  -0.526
  781DIO     C843691   2.324   0.920  -0.641
  781DIO     C943692   2.180   0.907  -0.647
  781DIO    C1043693   2.107   0.849  -0.536
  781DIO    C1143694   2.180   0.789  -0.425
  781DIO    C1243695   2.324   0.801  -0.420
  781DIO     F443696   2.389   0.749  -0.313
  781DIO     O143697   1.975   0.817  -0.559
  781DIO    C1343698   1.880   0.828  -0.457
  781DIO     O243699   1.880   0.889  -0.347
  781DIO    C1443700   1.751   0.769  -0.494
  781DIO    C1543701   1.685   0.799  -0.622
  781DIO     F543702   1.748   0.876  -0.714
  781DIO    C1643703   1.554   0.747  -0.657
  781DIO    C1743704   1.478   0.667  -0.562
  781DIO    C1843705   1.547   0.621  -0.442
  781DIO    C1943706   1.679   0.672  -0.408
  781DIO     F643707   1.741   0.615  -0.303
  781DIO    C2043708   1.338   0.621  -0.593
  781DIO     O343709   1.268   0.707  -0.684
  781DIO    C2143710   1.224   0.828  -0.624
  781DIO    C2243711   1.135   0.800  -0.503
  781DIO    C2343712   1.216   0.711  -0.409
  781DIO     O443713   1.260   0.593  -0.475
  781DIO    C2443714   1.003   0.730  -0.540
  781DIO    C2543715   0.912   0.807  -0.637
  781DIO    C2643716   0.874   0.946  -0.589
  781DIO     H143717   2.594   0.669  -0.474
  781DIO     H243718   2.553   1.103  -0.550
  781DIO     H343719   2.376   0.966  -0.724
  781DIO     H443720   2.125   0.938  -0.735
  781DIO     H543721   2.125   0.741  -0.345
  781DIO     H643722   1.516   0.767  -0.757
  781DIO     H743723   1.504   0.544  -0.379
  781DIO     H843724   1.347   0.525  -0.645
  781DIO     H943725   1.311   0.888  -0.595
  781DIO    H1043726   1.172   0.886  -0.700
  781DIO    H1143727   1.113   0.894  -0.452
  781DIO    H1243728   1.155   0.680  -0.323
  781DIO    H1343729   1.302   0.765  -0.368
  781DIO    H1443730   1.023   0.632  -0.584
  781DIO    H1543731   0.946   0.712  -0.448
  781DIO    H1643732   0.959   0.814  -0.736
  781DIO    H1743733   0.820   0.748  -0.652
  781DIO    H1843734   0.830   0.942  -0.489
  781DIO    H1943735   0.960   1.013  -0.587
  781DIO    H2043736   0.800   0.990  -0.657
  782DIO     F143737   7.881   4.848   3.836
  782DIO     C143738   7.803   4.791   3.931
  782DIO     C243739   7.659   4.806   3.923
  782DIO     C343740   7.570   4.748   4.026
  782DIO     C443741   7.636   4.672   4.135
  782DIO     C543742   7.780   4.659   4.141
  782DIO     F243743   7.835   4.586   4.240
  782DIO     C643744   7.864   4.718   4.039
  782DIO     F343745   7.997   4.705   4.046
  782DIO     C743746   7.424   4.763   4.020
  782DIO     C843747   7.347   4.810   4.137
  782DIO     C943748   7.202   4.824   4.132
  782DIO    C1043749   7.129   4.783   4.013
  782DIO    C1143750   7.202   4.743   3.894
  782DIO    C1243751   7.346   4.731   3.898
  782DIO     F443752   7.411   4.689   3.788
  782DIO     O143753   6.997   4.821   4.006
  782DIO    C1343754   6.903   4.740   3.944
  782DIO     O243755   6.902   4.617   3.913
  782DIO    C1443756   6.774   4.807   3.926
  782DIO    C1543757   6.707   4.880   4.036
  782DIO     F543758   6.770   4.894   4.155
  782DIO    C1643759   6.576   4.941   4.022
  782DIO    C1743760   6.501   4.926   3.898
  782DIO    C1843761   6.569   4.870   3.783
  782DIO    C1943762   6.701   4.810   3.797
  782DIO     F643763   6.764   4.773   3.683
  782DIO    C2043764   6.360   4.980   3.886
  782DIO     O343765   6.290   4.988   4.011
  782DIO    C2143766   6.247   4.861   4.058
  782DIO    C2243767   6.158   4.792   3.955
  782DIO    C2343768   6.238   4.784   3.826
  782DIO     O443769   6.283   4.914   3.785
  782DIO    C2443770   6.025   4.867   3.930
  782DIO    C2543771   5.934   4.886   4.052
  782DIO    C2643772   5.896   4.755   4.120
  782DIO     H143773   7.616   4.861   3.840
  782DIO     H243774   7.575   4.619   4.208
  782DIO     H343775   7.398   4.840   4.227
  782DIO     H443776   7.147   4.867   4.214
  782DIO     H543777   7.147   4.717   3.804
  782DIO     H643778   6.538   5.000   4.104
  782DIO     H743779   6.527   4.877   3.684
  782DIO     H843780   6.370   5.084   3.852
  782DIO     H943781   6.333   4.799   4.082
  782DIO    H1043782   6.194   4.877   4.153
  782DIO    H1143783   6.135   4.691   3.989
  782DIO    H1243784   6.177   4.743   3.745
  782DIO    H1343785   6.325   4.717   3.837
  782DIO    H1443786   6.045   4.966   3.887
  782DIO    H1543787   5.968   4.812   3.853
  782DIO    H1643788   5.982   4.952   4.125
  782DIO    H1743789   5.842   4.936   4.019
  782DIO    H1843790   5.852   4.685   4.049
  782DIO    H1943791   5.982   4.708   4.167
  782DIO    H2043792   5.822   4.774   4.199
  783DIO     F143793  10.974  10.302   9.090
  783DIO     C143794  10.897  10.368   9.002
  783DIO     C243795  10.753  10.353   9.009
  783DIO     C343796  10.664  10.422   8.913
  783DIO     C443797  10.729  10.509   8.812
  783DIO     C543798  10.874  10.523   8.808
  783DIO     F243799  10.929  10.606   8.718
  783DIO     C643800  10.957  10.454   8.903
  783DIO     F343801  11.091  10.466   8.897
  783DIO     C743802  10.517  10.407   8.917
  783DIO     C843803  10.440  10.372   8.795
  783DIO     C943804  10.296  10.358   8.799
  783DIO    C1043805  10.223  10.386   8.922
  783DIO    C1143806  10.295  10.413   9.045
  783DIO    C1243807  10.440  10.425   9.041
  783DIO     F443808  10.504  10.455   9.155
  783DIO     O143809  10.091  10.347   8.925
  783DIO    C1343810   9.996  10.421   8.995
  783DIO     O243811   9.995  10.540   9.039
  783DIO    C1443812   9.867  10.353   9.006
  783DIO    C1543813   9.801  10.292   8.888
  783DIO     F543814   9.863  10.291   8.769
  783DIO    C1643815   9.670  10.230   8.895
  783DIO    C1743816   9.594  10.231   9.020
  783DIO    C1843817   9.663  10.274   9.141
  783DIO    C1943818   9.795  10.335   9.134
  783DIO     F643819   9.857  10.360   9.251
  783DIO    C2043820   9.454  10.176   9.026
  783DIO     O343821   9.384  10.181   8.901
  783DIO    C2143822   9.340  10.313   8.868
  783DIO    C2243823   9.251  10.370   8.978
  783DIO    C2343824   9.332  10.364   9.108
  783DIO     O443825   9.376  10.231   9.134
  783DIO    C2443826   9.118  10.293   8.995
  783DIO    C2543827   9.028  10.288   8.872
  783DIO    C2643828   8.989  10.425   8.818
  783DIO     H143829  10.710  10.289   9.086
  783DIO     H243830  10.669  10.570   8.746
  783DIO     H343831  10.492  10.353   8.702
  783DIO     H443832  10.240  10.324   8.712
  783DIO     H543833  10.241  10.429   9.137
  783DIO     H643834   9.632  10.180   8.807
  783DIO     H743835   9.620  10.257   9.239
  783DIO     H843836   9.463  10.069   9.049
  783DIO     H943837   9.427  10.377   8.851
  783DIO    H1043838   9.287  10.307   8.773
  783DIO    H1143839   9.229  10.475   8.956
  783DIO    H1243840   9.271  10.396   9.193
  783DIO    H1343841   9.418  10.432   9.103
  783DIO    H1443842   9.138  10.190   9.027
  783DIO    H1543843   9.062  10.339   9.077
  783DIO    H1643844   9.075  10.229   8.792
  783DIO    H1743845   8.936  10.234   8.899
  783DIO    H1843846   8.945  10.487   8.897
  783DIO    H1943847   9.076  10.477   8.776
  783DIO    H2043848   8.916  10.414   8.738
  784DIO     F143849   8.541   2.744   6.413
  784DIO     C143850   8.463   2.740   6.303
  784DIO     C243851   8.319   2.732   6.318
  784DIO     C343852   8.231   2.726   6.200
  784DIO     C443853   8.296   2.731   6.067
  784DIO     C543854   8.440   2.739   6.055
  784DIO     F243855   8.496   2.747   5.932
  784DIO     C643856   8.524   2.744   6.172
  784DIO     F343857   8.658   2.751   6.159
  784DIO     C743858   8.084   2.716   6.212
  784DIO     C843859   8.007   2.613   6.139
  784DIO     C943860   7.862   2.605   6.151
  784DIO    C1043861   7.790   2.704   6.229
  784DIO    C1143862   7.862   2.801   6.308
  784DIO    C1243863   8.006   2.809   6.298
  784DIO     F443864   8.071   2.904   6.368
  784DIO     O143865   7.658   2.675   6.256
  784DIO    C1343866   7.563   2.777   6.264
  784DIO     O243867   7.562   2.896   6.224
  784DIO    C1443868   7.434   2.730   6.316
  784DIO    C1543869   7.368   2.609   6.262
  784DIO     F543870   7.430   2.533   6.169
  784DIO    C1643871   7.237   2.565   6.306
  784DIO    C1743872   7.161   2.644   6.403
  784DIO    C1843873   7.230   2.754   6.470
  784DIO    C1943874   7.361   2.797   6.426
  784DIO     F643875   7.424   2.889   6.502
  784DIO    C2043876   7.020   2.606   6.442
  784DIO     O343877   6.951   2.531   6.341
  784DIO    C2143878   6.907   2.613   6.233
  784DIO    C2243879   6.818   2.726   6.283
  784DIO    C2343880   6.899   2.803   6.388
  784DIO     O443881   6.943   2.716   6.491
  784DIO    C2443882   6.685   2.677   6.345
  784DIO    C2543883   6.595   2.596   6.251
  784DIO    C2643884   6.556   2.669   6.124
  784DIO     H143885   8.277   2.731   6.417
  784DIO     H243886   8.235   2.736   5.977
  784DIO     H343887   8.059   2.540   6.079
  784DIO     H443888   7.807   2.524   6.105
  784DIO     H543889   7.808   2.871   6.370
  784DIO     H643890   7.199   2.471   6.269
  784DIO     H743891   7.187   2.801   6.557
  784DIO     H843892   7.030   2.537   6.527
  784DIO     H943893   6.994   2.653   6.180
  784DIO    H1043894   6.854   2.549   6.162
  784DIO    H1143895   6.796   2.794   6.200
  784DIO    H1243896   6.838   2.881   6.434
  784DIO    H1343897   6.985   2.853   6.342
  784DIO    H1443898   6.705   2.616   6.434
  784DIO    H1543899   6.629   2.764   6.379
  784DIO    H1643900   6.642   2.500   6.226
  784DIO    H1743901   6.503   2.571   6.306
  784DIO    H1843902   6.512   2.767   6.146
  784DIO    H1943903   6.643   2.684   6.058
  784DIO    H2043904   6.483   2.610   6.068
  785DIO     F143905   9.191   9.651   7.402
  785DIO     C143906   9.113   9.731   7.477
  785DIO     C243907   8.969   9.726   7.461
  785DIO     C343908   8.880   9.814   7.540
  785DIO     C443909   8.946   9.905   7.637
  785DIO     C543910   9.090   9.908   7.652
  785DIO     F243911   9.145   9.988   7.744
  785DIO     C643912   9.174   9.821   7.572
  785DIO     F343913   9.307   9.825   7.586
  785DIO     C743914   8.734   9.812   7.524
  785DIO     C843915   8.657   9.936   7.503
  785DIO     C943916   8.512   9.934   7.488
  785DIO    C1043917   8.439   9.809   7.503
  785DIO    C1143918   8.512   9.684   7.516
  785DIO    C1243919   8.656   9.686   7.529
  785DIO     F443920   8.721   9.569   7.546
  785DIO     O143921   8.307   9.810   7.464
  785DIO    C1343922   8.213   9.732   7.530
  785DIO     O243923   8.212   9.676   7.643
  785DIO    C1443924   8.083   9.729   7.461
  785DIO    C1543925   8.017   9.853   7.414
  785DIO     F543926   8.080   9.972   7.425
  785DIO    C1643927   7.886   9.852   7.351
  785DIO    C1743928   7.811   9.728   7.338
  785DIO    C1843929   7.879   9.603   7.368
  785DIO    C1943930   8.011   9.604   7.430
  785DIO     F643931   8.073   9.485   7.441
  785DIO    C2043932   7.670   9.728   7.283
  785DIO     O343933   7.600   9.852   7.302
  785DIO    C2143934   7.556   9.870   7.436
  785DIO    C2243935   7.468   9.755   7.481
  785DIO    C2343936   7.548   9.627   7.461
  785DIO     O443937   7.593   9.615   7.326
  785DIO    C2443938   7.335   9.746   7.403
  785DIO    C2543939   7.244   9.869   7.411
  785DIO    C2643940   7.206   9.908   7.553
  785DIO     H143941   8.926   9.657   7.389
  785DIO     H243942   8.885   9.964   7.705
  785DIO     H343943   8.708  10.031   7.494
  785DIO     H443944   8.457  10.024   7.464
  785DIO     H543945   8.457   9.591   7.522
  785DIO     H643946   7.848   9.945   7.310
  785DIO     H743947   7.836   9.508   7.340
  785DIO     H843948   7.680   9.716   7.175
  785DIO     H943949   7.643   9.880   7.502
  785DIO    H1043950   7.504   9.966   7.441
  785DIO    H1143951   7.445   9.766   7.588
  785DIO    H1243952   7.487   9.539   7.484
  785DIO    H1343953   7.634   9.624   7.529
  785DIO    H1443954   7.355   9.726   7.297
  785DIO    H1543955   7.278   9.660   7.440
  785DIO    H1643956   7.291   9.955   7.362
  785DIO    H1743957   7.152   9.849   7.355
  785DIO    H1843958   7.162   9.823   7.607
  785DIO    H1943959   7.292   9.944   7.610
  785DIO    H2043960   7.132   9.989   7.551
  786DIO     F143961   8.544   0.818   4.933
  786DIO     C143962   8.466   0.715   4.972
  786DIO     C243963   8.322   0.732   4.975
  786DIO     C343964   8.233   0.622   5.019
  786DIO     C443965   8.299   0.494   5.057
  786DIO     C543966   8.443   0.480   5.053
  786DIO     F243967   8.498   0.362   5.085
  786DIO     C643968   8.527   0.590   5.011
  786DIO     F343969   8.661   0.576   5.008
  786DIO     C743970   8.087   0.637   5.024
  786DIO     C843971   8.010   0.601   5.145
  786DIO     C943972   7.865   0.615   5.149
  786DIO    C1043973   7.792   0.657   5.031
  786DIO    C1143974   7.865   0.700   4.913
  786DIO    C1243975   8.009   0.688   4.909
  786DIO     F443976   8.074   0.724   4.796
  786DIO     O143977   7.660   0.691   5.049
  786DIO    C1343978   7.566   0.666   4.950
  786DIO     O243979   7.565   0.590   4.850
  786DIO    C1443980   7.437   0.730   4.978
  786DIO    C1543981   7.370   0.718   5.109
  786DIO     F543982   7.433   0.655   5.211
  786DIO    C1643983   7.240   0.774   5.137
  786DIO    C1743984   7.164   0.841   5.031
  786DIO    C1843985   7.233   0.869   4.906
  786DIO    C1943986   7.364   0.814   4.879
  786DIO     F643987   7.427   0.856   4.767
  786DIO    C2043988   7.023   0.890   5.055
  786DIO     O343989   6.953   0.819   5.158
  786DIO    C2143990   6.910   0.690   5.115
  786DIO    C2243991   6.821   0.701   4.992
  786DIO    C2343992   6.902   0.775   4.885
  786DIO     O443993   6.946   0.901   4.935
  786DIO    C2443994   6.688   0.775   5.019
  786DIO    C2543995   6.597   0.713   5.125
  786DIO    C2643996   6.559   0.568   5.097
  786DIO     H143997   8.279   0.826   4.944
  786DIO     H243998   8.238   0.407   5.081
  786DIO     H343999   8.061   0.567   5.234
  786DIO     H444000   7.810   0.597   5.240
  786DIO     H544001   7.811   0.736   4.826
  786DIO     H644002   7.201   0.769   5.238
  786DIO     H744003   7.190   0.936   4.833
  786DIO     H844004   7.033   0.993   5.093
  786DIO     H944005   6.996   0.626   5.095
  786DIO    H1044006   6.857   0.643   5.199
  786DIO    H1144007   6.798   0.600   4.954
  786DIO    H1244008   6.840   0.794   4.797
  786DIO    H1344009   6.988   0.716   4.853
  786DIO    H1444010   6.708   0.879   5.048
  786DIO    H1544011   6.632   0.780   4.925
  786DIO    H1644012   6.645   0.719   5.224
  786DIO    H1744013   6.506   0.773   5.132
  786DIO    H1844014   6.515   0.558   4.998
  786DIO    H1944015   6.645   0.502   5.104
  786DIO    H2044016   6.485   0.534   5.171
  787DIO     F144017   8.192   1.229   5.988
  787DIO     C144018   8.115   1.189   5.885
  787DIO     C244019   7.971   1.186   5.902
  787DIO     C344020   7.882   1.141   5.792
  787DIO     C444021   7.947   1.102   5.665
  787DIO     C544022   8.092   1.105   5.651
  787DIO     F244023   8.147   1.073   5.533
  787DIO     C644024   8.175   1.149   5.760
  787DIO     F344025   8.309   1.151   5.746
  787DIO     C744026   7.735   1.137   5.808
  787DIO     C844027   7.658   1.015   5.773
  787DIO     C944028   7.514   1.011   5.787
  787DIO    C1044029   7.441   1.130   5.827
  787DIO    C1144030   7.513   1.248   5.870
  787DIO    C1244031   7.658   1.252   5.858
  787DIO     F444032   7.722   1.365   5.893
  787DIO     O144033   7.309   1.112   5.862
  787DIO    C1344034   7.214   1.211   5.836
  787DIO     O244035   7.213   1.310   5.759
  787DIO    C1444036   7.085   1.184   5.901
  787DIO    C1544037   7.019   1.052   5.890
  787DIO     F544038   7.081   0.950   5.827
  787DIO    C1644039   6.888   1.025   5.946
  787DIO    C1744040   6.812   1.131   6.011
  787DIO    C1844041   6.881   1.257   6.039
  787DIO    C1944042   7.013   1.283   5.983
  787DIO     F644043   7.075   1.395   6.024
  787DIO    C2044044   6.672   1.108   6.061
  787DIO     O344045   6.602   1.004   5.991
  787DIO    C2144046   6.558   1.046   5.862
  787DIO    C2244047   6.469   1.169   5.871
  787DIO    C2344048   6.550   1.276   5.945
  787DIO     O444049   6.594   1.228   6.071
  787DIO    C2444050   6.336   1.143   5.945
  787DIO    C2544051   6.246   1.036   5.884
  787DIO    C2644052   6.207   1.062   5.740
  787DIO     H144053   7.928   1.218   5.996
  787DIO     H244054   7.887   1.077   5.579
  787DIO     H344055   7.710   0.926   5.740
  787DIO     H444056   7.458   0.919   5.770
  787DIO     H544057   7.459   1.335   5.905
  787DIO     H644058   6.850   0.924   5.942
  787DIO     H744059   6.838   1.331   6.105
  787DIO     H844060   6.681   1.071   6.164
  787DIO     H944061   6.645   1.065   5.798
  787DIO    H1044062   6.505   0.962   5.816
  787DIO    H1144063   6.447   1.206   5.770
  787DIO    H1244064   6.489   1.365   5.963
  787DIO    H1344065   6.636   1.308   5.885
  787DIO    H1444066   6.356   1.115   6.050
  787DIO    H1544067   6.280   1.237   5.949
  787DIO    H1644068   6.293   0.937   5.892
  787DIO    H1744069   6.154   1.030   5.944
  787DIO    H1844070   6.163   1.162   5.728
  787DIO    H1944071   6.294   1.055   5.673
  787DIO    H2044072   6.134   0.989   5.706
  788DIO     F144073   6.005   0.064   5.877
  788DIO     C144074   5.927  -0.004   5.964
  788DIO     C244075   5.783   0.012   5.957
  788DIO     C344076   5.694  -0.059   6.052
  788DIO     C444077   5.760  -0.147   6.152
  788DIO     C544078   5.904  -0.161   6.156
  788DIO     F244079   5.960  -0.246   6.245
  788DIO     C644080   5.988  -0.090   6.062
  788DIO     F344081   6.122  -0.103   6.068
  788DIO     C744082   5.548  -0.043   6.048
  788DIO     C844083   5.471  -0.011   6.171
  788DIO     C944084   5.326   0.004   6.167
  788DIO    C1044085   5.254  -0.023   6.044
  788DIO    C1144086   5.326  -0.048   5.921
  788DIO    C1244087   5.470  -0.060   5.924
  788DIO     F444088   5.535  -0.088   5.809
  788DIO     O144089   5.121   0.016   6.042
  788DIO    C1344090   5.027  -0.057   5.970
  788DIO     O244091   5.026  -0.174   5.925
  788DIO    C1444092   4.898   0.012   5.960
  788DIO    C1544093   4.831   0.071   6.079
  788DIO     F544094   4.894   0.070   6.199
  788DIO    C1644095   4.701   0.133   6.073
  788DIO    C1744096   4.625   0.134   5.948
  788DIO    C1844097   4.694   0.093   5.826
  788DIO    C1944098   4.825   0.031   5.833
  788DIO     F644099   4.888   0.009   5.715
  788DIO    C2044100   4.484   0.189   5.942
  788DIO     O344101   4.414   0.182   6.067
  788DIO    C2144102   4.371   0.050   6.098
  788DIO    C2244103   4.282  -0.006   5.988
  788DIO    C2344104   4.363   0.002   5.858
  788DIO     O444105   4.407   0.135   5.834
  788DIO    C2444106   4.149   0.071   5.972
  788DIO    C2544107   4.058   0.075   6.095
  788DIO    C2644108   4.020  -0.063   6.147
  788DIO     H144109   5.741   0.077   5.882
  788DIO     H244110   5.699  -0.209   6.217
  788DIO     H344111   5.522   0.007   6.264
  788DIO     H444112   5.271   0.036   6.254
  788DIO     H544113   5.272  -0.062   5.828
  788DIO     H644114   4.663   0.182   6.162
  788DIO     H744115   4.651   0.112   5.729
  788DIO     H844116   4.494   0.296   5.921
  788DIO     H944117   4.457  -0.015   6.115
  788DIO    H1044118   4.318   0.054   6.194
  788DIO    H1144119   4.259  -0.111   6.009
  788DIO    H1244120   4.302  -0.028   5.773
  788DIO    H1344121   4.449  -0.066   5.862
  788DIO    H1444122   4.169   0.175   5.942
  788DIO    H1544123   4.093   0.026   5.889
  788DIO    H1644124   4.106   0.132   6.176
  788DIO    H1744125   3.967   0.129   6.069
  788DIO    H1844126   3.976  -0.124   6.068
  788DIO    H1944127   4.107  -0.116   6.188
  788DIO    H2044128   3.946  -0.054   6.227
  789DIO     F144129  10.963   3.016  10.031
  789DIO     C144130  10.885   3.012  10.141
  789DIO     C244131  10.741   3.021  10.127
  789DIO     C344132  10.652   3.019  10.245
  789DIO     C444133  10.718   3.005  10.377
  789DIO     C544134  10.862   2.996  10.389
  789DIO     F244135  10.918   2.979  10.510
  789DIO     C644136  10.946   2.999  10.271
  789DIO     F344137  11.080   2.991  10.283
  789DIO     C744138  10.506   3.029  10.233
  789DIO     C844139  10.429   3.127  10.313
  789DIO     C944140  10.284   3.136  10.302
  789DIO    C1044141  10.212   3.043  10.217
  789DIO    C1144142  10.284   2.951  10.131
  789DIO    C1244143  10.428   2.943  10.141
  789DIO     F444144  10.493   2.854  10.064
  789DIO     O144145  10.079   3.073  10.193
  789DIO    C1344146   9.985   2.972  10.177
  789DIO     O244147   9.984   2.851  10.209
  789DIO    C1444148   9.856   3.023  10.129
  789DIO    C1544149   9.789   3.139  10.191
  789DIO     F544150   9.852   3.209  10.289
  789DIO    C1644151   9.659   3.187  10.150
  789DIO    C1744152   9.583   3.115  10.048
  789DIO    C1844153   9.652   3.010   9.973
  789DIO    C1944154   9.783   2.964  10.014
  789DIO     F644155   9.846   2.877   9.932
  789DIO    C2044156   9.442   3.156  10.012
  789DIO     O344157   9.372   3.223  10.117
  789DIO    C2144158   9.329   3.134  10.219
  789DIO    C2244159   9.240   3.024  10.162
  789DIO    C2344160   9.321   2.955  10.052
  789DIO     O444161   9.365   3.050   9.955
  789DIO    C2444162   9.107   3.078  10.104
  789DIO    C2544163   9.016   3.152  10.202
  789DIO    C2644164   8.978   3.070  10.325
  789DIO     H144165  10.699   3.030  10.027
  789DIO     H244166  10.657   2.993  10.466
  789DIO     H344167  10.480   3.196  10.378
  789DIO     H444168  10.229   3.213  10.354
  789DIO     H544169  10.230   2.886  10.065
  789DIO     H644170   9.621   3.278  10.194
  789DIO     H744171   9.609   2.969   9.883
  789DIO     H844172   9.452   3.231   9.932
  789DIO     H944173   9.415   3.090  10.270
  789DIO    H1044174   9.276   3.193  10.295
  789DIO    H1144175   9.217   2.951  10.240
  789DIO    H1244176   9.260   2.881  10.000
  789DIO    H1344177   9.407   2.902  10.094
  789DIO    H1444178   9.127   3.145  10.019
  789DIO    H1544179   9.051   2.993  10.063
  789DIO    H1644180   9.064   3.246  10.234
  789DIO    H1744181   8.925   3.181  10.150
  789DIO    H1844182   8.934   2.974  10.296
  789DIO    H1944183   9.065   3.051  10.389
  789DIO    H2044184   8.904   3.125  10.385
  790DIO     F144185   1.488   6.469   3.489
  790DIO     C144186   1.411   6.521   3.392
  790DIO     C244187   1.266   6.507   3.401
  790DIO     C344188   1.178   6.561   3.296
  790DIO     C444189   1.243   6.632   3.183
  790DIO     C544190   1.387   6.645   3.177
  790DIO     F244191   1.443   6.715   3.075
  790DIO     C644192   1.471   6.591   3.281
  790DIO     F344193   1.605   6.603   3.273
  790DIO     C744194   1.031   6.546   3.302
  790DIO     C844195   0.954   6.495   3.187
  790DIO     C944196   0.809   6.481   3.193
  790DIO    C1044197   0.737   6.527   3.310
  790DIO    C1144198   0.809   6.572   3.427
  790DIO    C1244199   0.953   6.583   3.422
  790DIO     F444200   1.018   6.630   3.531
  790DIO     O144201   0.605   6.489   3.318
  790DIO    C1344202   0.510   6.573   3.377
  790DIO     O244203   0.509   6.696   3.403
  790DIO    C1444204   0.381   6.506   3.398
  790DIO    C1544205   0.315   6.429   3.290
  790DIO     F544206   0.377   6.410   3.172
  790DIO    C1644207   0.184   6.369   3.307
  790DIO    C1744208   0.108   6.388   3.430
  790DIO    C1844209   0.177   6.449   3.543
  790DIO    C1944210   0.309   6.508   3.527
  790DIO     F644211   0.371   6.549   3.639
  790DIO    C2044212  -0.033   6.335   3.444
  790DIO     O344213  -0.102   6.322   3.320
  790DIO    C2144214  -0.146   6.447   3.268
  790DIO    C2244215  -0.235   6.520   3.368
  790DIO    C2344216  -0.154   6.533   3.497
  790DIO     O444217  -0.110   6.405   3.542
  790DIO    C2444218  -0.368   6.446   3.396
  790DIO    C2544219  -0.458   6.423   3.275
  790DIO    C2644220  -0.497   6.550   3.202
  790DIO     H144221   1.224   6.455   3.486
  790DIO     H244222   1.183   6.683   3.109
  790DIO     H344223   1.006   6.461   3.098
  790DIO     H444224   0.754   6.435   3.112
  790DIO     H544225   0.755   6.601   3.516
  790DIO     H644226   0.146   6.306   3.227
  790DIO     H744227   0.134   6.446   3.643
  790DIO     H844228  -0.023   6.233   3.483
  790DIO     H944229  -0.059   6.508   3.241
  790DIO    H1044230  -0.199   6.427   3.174
  790DIO    H1144231  -0.257   6.620   3.330
  790DIO    H1244232  -0.215   6.577   3.576
  790DIO    H1344233  -0.068   6.599   3.483
  790DIO    H1444234  -0.348   6.348   3.442
  790DIO    H1544235  -0.424   6.504   3.470
  790DIO    H1644236  -0.411   6.353   3.205
  790DIO    H1744237  -0.550   6.373   3.310
  790DIO    H1844238  -0.541   6.623   3.270
  790DIO    H1944239  -0.410   6.596   3.153
  790DIO    H2044240  -0.570   6.528   3.124
  791DIO     F144241   6.296   0.852   2.346
  791DIO     C144242   6.218   0.816   2.242
  791DIO     C244243   6.074   0.813   2.258
  791DIO     C344244   5.985   0.772   2.147
  791DIO     C444245   6.051   0.737   2.019
  791DIO     C544246   6.195   0.742   2.005
  791DIO     F244247   6.251   0.713   1.885
  791DIO     C644248   6.279   0.781   2.115
  791DIO     F344249   6.413   0.784   2.101
  791DIO     C744250   5.839   0.767   2.162
  791DIO     C844251   5.762   0.647   2.123
  791DIO     C944252   5.617   0.642   2.137
  791DIO    C1044253   5.545   0.759   2.182
  791DIO    C1144254   5.617   0.876   2.229
  791DIO    C1244255   5.761   0.880   2.217
  791DIO     F444256   5.826   0.991   2.256
  791DIO     O144257   5.412   0.740   2.216
  791DIO    C1344258   5.318   0.840   2.194
  791DIO     O244259   5.317   0.942   2.120
  791DIO    C1444260   5.189   0.810   2.257
  791DIO    C1544261   5.123   0.679   2.241
  791DIO     F544262   5.185   0.579   2.175
  791DIO    C1644263   4.992   0.650   2.297
  791DIO    C1744264   4.916   0.754   2.366
  791DIO    C1844265   4.985   0.878   2.397
  791DIO    C1944266   5.116   0.906   2.343
  791DIO     F644267   5.179   1.017   2.388
  791DIO    C2044268   4.775   0.729   2.414
  791DIO     O344269   4.706   0.628   2.340
  791DIO    C2144270   4.662   0.674   2.213
  791DIO    C2244271   4.573   0.797   2.227
  791DIO    C2344272   4.654   0.901   2.304
  791DIO     O444273   4.698   0.848   2.429
  791DIO    C2444274   4.440   0.768   2.300
  791DIO    C2544275   4.350   0.663   2.235
  791DIO    C2644276   4.311   0.695   2.092
  791DIO     H144277   6.032   0.841   2.354
  791DIO     H244278   5.990   0.716   1.931
  791DIO     H344279   5.813   0.559   2.087
  791DIO     H444280   5.562   0.551   2.116
  791DIO     H544281   5.563   0.961   2.267
  791DIO     H644282   4.954   0.549   2.289
  791DIO     H744283   4.942   0.950   2.467
  791DIO     H844284   4.785   0.688   2.516
  791DIO     H944285   4.749   0.696   2.150
  791DIO    H1044286   4.609   0.592   2.164
  791DIO    H1144287   4.550   0.837   2.127
  791DIO    H1244288   4.593   0.990   2.325
  791DIO    H1344289   4.740   0.935   2.246
  791DIO    H1444290   4.460   0.736   2.403
  791DIO    H1544291   4.384   0.862   2.308
  791DIO    H1644292   4.397   0.564   2.239
  791DIO    H1744293   4.258   0.655   2.295
  791DIO    H1844294   4.267   0.795   2.084
  791DIO    H1944295   4.398   0.690   2.025
  791DIO    H2044296   4.237   0.623   2.055
  792DIO     F144297   4.196   7.304   8.369
  792DIO     C144298   4.119   7.383   8.293
  792DIO     C244299   3.975   7.367   8.297
  792DIO     C344300   3.886   7.451   8.214
  792DIO     C444301   3.951   7.553   8.129
  792DIO     C544302   4.096   7.568   8.127
  792DIO     F244303   4.151   7.664   8.051
  792DIO     C644304   4.179   7.484   8.209
  792DIO     F344305   4.313   7.497   8.205
  792DIO     C744306   3.739   7.435   8.215
  792DIO     C844307   3.662   7.421   8.090
  792DIO     C944308   3.518   7.406   8.091
  792DIO    C1044309   3.445   7.414   8.217
  792DIO    C1144310   3.517   7.420   8.342
  792DIO    C1244311   3.662   7.433   8.341
  792DIO     F444312   3.726   7.444   8.459
  792DIO     O144313   3.313   7.375   8.213
  792DIO    C1344314   3.218   7.437   8.295
  792DIO     O244315   3.217   7.546   8.357
  792DIO    C1444316   3.089   7.367   8.294
  792DIO    C1544317   3.023   7.327   8.168
  792DIO     F544318   3.085   7.345   8.050
  792DIO    C1644319   2.892   7.264   8.165
  792DIO    C1744320   2.816   7.245   8.288
  792DIO    C1844321   2.885   7.268   8.415
  792DIO    C1944322   3.017   7.329   8.418
  792DIO     F644323   3.079   7.334   8.537
  792DIO    C2044324   2.676   7.190   8.286
  792DIO     O344325   2.606   7.215   8.163
  792DIO    C2144326   2.562   7.350   8.152
  792DIO    C2244327   2.473   7.389   8.270
  792DIO    C2344328   2.554   7.362   8.397
  792DIO     O444329   2.598   7.227   8.401
  792DIO    C2444330   2.340   7.310   8.274
  792DIO    C2544331   2.250   7.325   8.152
  792DIO    C2644332   2.211   7.469   8.121
  792DIO     H144333   3.932   7.292   8.363
  792DIO     H244334   3.891   7.624   8.073
  792DIO     H344335   3.714   7.417   7.995
  792DIO     H444336   3.462   7.387   8.000
  792DIO     H544337   3.463   7.421   8.436
  792DIO     H644338   2.854   7.229   8.070
  792DIO     H744339   2.842   7.235   8.509
  792DIO     H844340   2.685   7.081   8.291
  792DIO     H944341   2.649   7.417   8.146
  792DIO    H1044342   2.509   7.361   8.057
  792DIO    H1144343   2.451   7.496   8.265
  792DIO    H1244344   2.493   7.380   8.486
  792DIO    H1344345   2.640   7.430   8.404
  792DIO    H1444346   2.360   7.203   8.288
  792DIO    H1544347   2.284   7.343   8.363
  792DIO    H1644348   2.297   7.281   8.063
  792DIO    H1744349   2.158   7.268   8.169
  792DIO    H1844350   2.167   7.518   8.208
  792DIO    H1944351   2.298   7.528   8.088
  792DIO    H2044352   2.138   7.472   8.040
  793DIO     F144353   4.715   3.341   7.372
  793DIO     C144354   4.638   3.434   7.314
  793DIO     C244355   4.494   3.417   7.314
  793DIO     C344356   4.405   3.516   7.249
  793DIO     C444357   4.470   3.633   7.186
  793DIO     C544358   4.615   3.648   7.187
  793DIO     F244359   4.670   3.758   7.132
  793DIO     C644360   4.698   3.549   7.251
  793DIO     F344361   4.832   3.564   7.250
  793DIO     C744362   4.259   3.500   7.247
  793DIO     C844363   4.181   3.512   7.122
  793DIO     C944364   4.037   3.496   7.120
  793DIO    C1044365   3.964   3.480   7.245
  793DIO    C1144366   4.037   3.461   7.369
  793DIO    C1244367   4.181   3.473   7.370
  793DIO     F444368   4.246   3.461   7.488
  793DIO     O144369   3.832   3.442   7.234
  793DIO    C1344370   3.737   3.486   7.326
  793DIO     O244371   3.737   3.581   7.408
  793DIO    C1444372   3.608   3.418   7.311
  793DIO    C1544373   3.542   3.404   7.180
  793DIO     F544374   3.605   3.445   7.068
  793DIO    C1644375   3.411   3.343   7.164
  793DIO    C1744376   3.335   3.299   7.281
  793DIO    C1844377   3.404   3.297   7.410
  793DIO    C1944378   3.536   3.357   7.425
  793DIO     F644379   3.598   3.338   7.543
  793DIO    C2044380   3.195   3.246   7.268
  793DIO     O344381   3.125   3.295   7.153
  793DIO    C2144382   3.081   3.430   7.169
  793DIO    C2244383   2.992   3.445   7.292
  793DIO    C2344384   3.073   3.393   7.411
  793DIO     O444385   3.117   3.259   7.388
  793DIO    C2444386   2.860   3.366   7.280
  793DIO    C2544387   2.769   3.406   7.163
  793DIO    C2644388   2.731   3.553   7.162
  793DIO     H144389   4.451   3.331   7.363
  793DIO     H244390   4.410   3.714   7.145
  793DIO     H344391   4.233   3.526   7.028
  793DIO     H444392   3.982   3.496   7.027
  793DIO     H544393   3.982   3.443   7.461
  793DIO     H644394   3.373   3.327   7.064
  793DIO     H744395   3.361   3.246   7.495
  793DIO     H844396   3.204   3.138   7.252
  793DIO     H944397   3.168   3.497   7.176
  793DIO    H1044398   3.029   3.459   7.077
  793DIO    H1144399   2.970   3.551   7.308
  793DIO    H1244400   3.012   3.392   7.502
  793DIO    H1344401   3.159   3.458   7.431
  793DIO    H1444402   2.880   3.259   7.273
  793DIO    H1544403   2.803   3.381   7.373
  793DIO    H1644404   2.816   3.379   7.068
  793DIO    H1744405   2.677   3.346   7.169
  793DIO    H1844406   2.687   3.583   7.257
  793DIO    H1944407   2.817   3.617   7.141
  793DIO    H2044408   2.657   3.571   7.083
  794DIO     F144409   9.730  -0.444  10.221
  794DIO     C144410   9.652  -0.335  10.209
  794DIO     C244411   9.508  -0.351  10.202
  794DIO     C344412   9.419  -0.233  10.187
  794DIO     C444413   9.485  -0.100  10.181
  794DIO     C544414   9.629  -0.088  10.188
  794DIO     F244415   9.684   0.035  10.187
  794DIO     C644416   9.713  -0.204  10.203
  794DIO     F344417   9.846  -0.191  10.208
  794DIO     C744418   9.273  -0.247  10.178
  794DIO     C844419   9.196  -0.182  10.070
  794DIO     C944420   9.051  -0.195  10.062
  794DIO    C1044421   8.978  -0.264  10.167
  794DIO    C1144422   9.051  -0.336  10.271
  794DIO    C1244423   9.195  -0.325  10.277
  794DIO     F444424   9.260  -0.387  10.377
  794DIO     O144425   8.846  -0.293  10.141
  794DIO    C1344426   8.752  -0.294  10.243
  794DIO     O244427   8.751  -0.244  10.359
  794DIO    C1444428   8.622  -0.349  10.200
  794DIO    C1544429   8.556  -0.304  10.075
  794DIO     F544430   8.619  -0.218   9.993
  794DIO    C1644431   8.425  -0.352  10.035
  794DIO    C1744432   8.350  -0.442  10.121
  794DIO    C1844433   8.418  -0.501  10.235
  794DIO    C1944434   8.550  -0.454  10.275
  794DIO     F644435   8.612  -0.522  10.373
  794DIO    C2044436   8.209  -0.484  10.086
  794DIO     O344437   8.139  -0.390  10.004
  794DIO    C2144438   8.095  -0.276  10.077
  794DIO    C2244439   8.007  -0.316  10.194
  794DIO    C2344440   8.087  -0.415  10.278
  794DIO     O444441   8.132  -0.525  10.199
  794DIO    C2444442   7.874  -0.382  10.149
  794DIO    C2544443   7.783  -0.295  10.061
  794DIO    C2644444   7.745  -0.162  10.124
  794DIO     H144445   9.465  -0.450  10.208
  794DIO     H244446   9.424  -0.010  10.180
  794DIO     H344447   9.247  -0.127   9.992
  794DIO     H444448   8.996  -0.154   9.978
  794DIO     H544449   8.996  -0.392  10.345
  794DIO     H644450   8.387  -0.322   9.938
  794DIO     H744451   8.375  -0.584  10.290
  794DIO     H844452   8.219  -0.574  10.024
  794DIO     H944453   8.182  -0.219  10.112
  794DIO    H1044454   8.043  -0.210  10.007
  794DIO    H1144455   7.984  -0.228  10.255
  794DIO    H1244456   8.026  -0.455  10.360
  794DIO    H1344457   8.173  -0.365  10.325
  794DIO    H1444458   7.894  -0.475  10.096
  794DIO    H1544459   7.817  -0.410  10.239
  794DIO    H1644460   7.830  -0.277   9.964
  794DIO    H1744461   7.691  -0.352  10.040
  794DIO    H1844462   7.701  -0.177  10.223
  794DIO    H1944463   7.831  -0.096  10.134
  794DIO    H2044464   7.671  -0.111  10.061
  795DIO     F144465   2.901   6.434   5.904
  795DIO     C144466   2.824   6.326   5.927
  795DIO     C244467   2.679   6.342   5.933
  795DIO     C344468   2.591   6.227   5.960
  795DIO     C444469   2.656   6.095   5.979
  795DIO     C544470   2.800   6.082   5.973
  795DIO     F244471   2.856   5.960   5.986
  795DIO     C644472   2.884   6.197   5.947
  795DIO     F344473   3.018   6.183   5.943
  795DIO     C744474   2.444   6.241   5.967
  795DIO     C844475   2.367   6.188   6.081
  795DIO     C944476   2.222   6.201   6.088
  795DIO    C1044477   2.150   6.260   5.977
  795DIO    C1144478   2.222   6.320   5.866
  795DIO    C1244479   2.366   6.309   5.861
  795DIO     F444480   2.431   6.361   5.755
  795DIO     O144481   2.018   6.291   6.000
  795DIO    C1344482   1.923   6.281   5.898
  795DIO     O244483   1.922   6.221   5.788
  795DIO    C1444484   1.794   6.340   5.935
  795DIO    C1544485   1.728   6.309   6.064
  795DIO     F544486   1.790   6.231   6.155
  795DIO    C1644487   1.597   6.361   6.099
  795DIO    C1744488   1.521   6.442   6.004
  795DIO    C1844489   1.590   6.488   5.885
  795DIO    C1944490   1.722   6.437   5.850
  795DIO     F644491   1.784   6.496   5.745
  795DIO    C2044492   1.380   6.487   6.035
  795DIO     O344493   1.311   6.401   6.126
  795DIO    C2144494   1.267   6.280   6.065
  795DIO    C2244495   1.178   6.309   5.945
  795DIO    C2344496   1.259   6.399   5.851
  795DIO     O444497   1.303   6.516   5.918
  795DIO    C2444498   1.045   6.378   5.982
  795DIO    C2544499   0.955   6.301   6.079
  795DIO    C2644500   0.916   6.163   6.029
  795DIO     H144501   2.637   6.441   5.917
  795DIO     H244502   2.596   6.006   5.989
  795DIO     H344503   2.419   6.141   6.164
  795DIO     H444504   2.167   6.169   6.175
  795DIO     H544505   2.168   6.369   5.786
  795DIO     H644506   1.559   6.341   6.198
  795DIO     H744507   1.547   6.566   5.822
  795DIO     H844508   1.390   6.583   6.088
  795DIO     H944509   1.354   6.220   6.035
  795DIO    H1044510   1.214   6.222   6.141
  795DIO    H1144511   1.156   6.215   5.893
  795DIO    H1244512   1.198   6.430   5.766
  795DIO    H1344513   1.345   6.345   5.809
  795DIO    H1444514   1.065   6.477   6.026
  795DIO    H1544515   0.989   6.397   5.890
  795DIO    H1644516   1.002   6.293   6.177
  795DIO    H1744517   0.863   6.360   6.094
  795DIO    H1844518   0.872   6.167   5.929
  795DIO    H1944519   1.003   6.096   6.026
  795DIO    H2044520   0.843   6.118   6.097
  796DIO     F144521   8.195   3.855   7.227
  796DIO     C144522   8.117   3.754   7.272
  796DIO     C244523   7.973   3.771   7.274
  796DIO     C344524   7.884   3.664   7.325
  796DIO     C444525   7.950   3.539   7.371
  796DIO     C544526   8.094   3.525   7.368
  796DIO     F244527   8.150   3.409   7.407
  796DIO     C644528   8.178   3.632   7.318
  796DIO     F344529   8.312   3.618   7.317
  796DIO     C744530   7.738   3.680   7.329
  796DIO     C844531   7.661   3.651   7.452
  796DIO     C944532   7.516   3.666   7.455
  796DIO    C1044533   7.444   3.700   7.334
  796DIO    C1144534   7.516   3.736   7.214
  796DIO    C1244535   7.660   3.724   7.211
  796DIO     F444536   7.725   3.753   7.096
  796DIO     O144537   7.311   3.735   7.350
  796DIO    C1344538   7.217   3.704   7.253
  796DIO     O244539   7.216   3.622   7.158
  796DIO    C1444540   7.088   3.770   7.277
  796DIO    C1544541   7.022   3.766   7.409
  796DIO     F544542   7.084   3.709   7.514
  796DIO    C1644543   6.891   3.824   7.433
  796DIO    C1744544   6.815   3.883   7.323
  796DIO    C1844545   6.884   3.904   7.196
  796DIO    C1944546   7.015   3.847   7.173
  796DIO     F644547   7.078   3.882   7.059
  796DIO    C2044548   6.674   3.934   7.344
  796DIO     O344549   6.605   3.869   7.451
  796DIO    C2144550   6.561   3.738   7.417
  796DIO    C2244551   6.472   3.741   7.293
  796DIO    C2344552   6.553   3.809   7.182
  796DIO     O444553   6.597   3.938   7.224
  796DIO    C2444554   6.339   3.817   7.315
  796DIO    C2544555   6.249   3.762   7.425
  796DIO    C2644556   6.210   3.616   7.406
  796DIO     H144557   7.931   3.864   7.238
  796DIO     H244558   7.889   3.454   7.400
  796DIO     H344559   7.712   3.623   7.543
  796DIO     H444560   7.461   3.653   7.547
  796DIO     H544561   7.462   3.766   7.125
  796DIO     H644562   6.853   3.825   7.534
  796DIO     H744563   6.841   3.966   7.119
  796DIO     H844564   6.684   4.039   7.375
  796DIO     H944565   6.648   3.673   7.400
  796DIO    H1044566   6.508   3.697   7.503
  796DIO    H1144567   6.449   3.639   7.262
  796DIO    H1244568   6.492   3.822   7.092
  796DIO    H1344569   6.639   3.748   7.153
  796DIO    H1444570   6.359   3.922   7.337
  796DIO    H1544571   6.283   3.816   7.221
  796DIO    H1644572   6.296   3.774   7.523
  796DIO    H1744573   6.157   3.822   7.428
  796DIO    H1844574   6.166   3.599   7.307
  796DIO    H1944575   6.297   3.550   7.417
  796DIO    H2044576   6.136   3.586   7.482
  797DIO     F144577   9.594   6.317   9.852
  797DIO     C144578   9.517   6.216   9.809
  797DIO     C244579   9.372   6.226   9.823
  797DIO     C344580   9.284   6.116   9.779
  797DIO     C444581   9.349   5.997   9.720
  797DIO     C544582   9.493   5.989   9.707
  797DIO     F244583   9.549   5.881   9.648
  797DIO     C644584   9.577   6.098   9.751
  797DIO     F344585   9.711   6.089   9.740
  797DIO     C744586   9.137   6.124   9.793
  797DIO     C844587   9.060   6.014   9.856
  797DIO     C944588   8.915   6.022   9.869
  797DIO    C1044589   8.843   6.133   9.812
  797DIO    C1144590   8.915   6.246   9.756
  797DIO    C1244591   9.059   6.239   9.745
  797DIO     F444592   9.124   6.343   9.688
  797DIO     O144593   8.711   6.146   9.849
  797DIO    C1344594   8.616   6.196   9.760
  797DIO     O244595   8.615   6.209   9.634
  797DIO    C1444596   8.487   6.223   9.824
  797DIO    C1544597   8.421   6.124   9.911
  797DIO     F544598   8.483   6.008   9.942
  797DIO    C1644599   8.290   6.146   9.970
  797DIO    C1744600   8.214   6.266   9.938
  797DIO    C1844601   8.283   6.373   9.867
  797DIO    C1944602   8.415   6.351   9.809
  797DIO     F644603   8.477   6.459   9.757
  797DIO    C2044604   8.073   6.286   9.990
  797DIO     O344605   8.004   6.164  10.015
  797DIO    C2144606   7.960   6.099   9.896
  797DIO    C2244607   7.871   6.192   9.814
  797DIO    C2344608   7.952   6.319   9.788
  797DIO     O444609   7.996   6.377   9.910
  797DIO    C2444610   7.738   6.227   9.884
  797DIO    C2544611   7.648   6.109   9.919
  797DIO    C2644612   7.609   6.023   9.799
  797DIO     H144613   9.330   6.316   9.866
  797DIO     H244614   9.289   5.918   9.677
  797DIO     H344615   9.112   5.929   9.898
  797DIO     H444616   8.860   5.945   9.923
  797DIO     H544617   8.861   6.331   9.718
  797DIO     H644618   8.252   6.073  10.040
  797DIO     H744619   8.240   6.472   9.860
  797DIO     H844620   8.083   6.335  10.088
  797DIO     H944621   8.047   6.067   9.837
  797DIO    H1044622   7.907   6.008   9.925
  797DIO    H1144623   7.849   6.144   9.717
  797DIO    H1244624   7.891   6.394   9.736
  797DIO    H1344625   8.038   6.298   9.723
  797DIO    H1444626   7.758   6.283   9.977
  797DIO    H1544627   7.682   6.295   9.819
  797DIO    H1644628   7.695   6.046   9.995
  797DIO    H1744629   7.556   6.148   9.965
  797DIO    H1844630   7.565   6.084   9.720
  797DIO    H1944631   7.696   5.970   9.759
  797DIO    H2044632   7.536   5.948   9.829
  798DIO     F144633   9.361   1.976   1.675
  798DIO     C144634   9.284   2.068   1.735
  798DIO     C244635   9.140   2.061   1.720
  798DIO     C344636   9.051   2.161   1.782
  798DIO     C444637   9.116   2.267   1.862
  798DIO     C544638   9.261   2.273   1.876
  798DIO     F244639   9.316   2.368   1.953
  798DIO     C644640   9.344   2.173   1.813
  798DIO     F344641   9.478   2.180   1.825
  798DIO     C744642   8.904   2.156   1.767
  798DIO     C844643   8.827   2.275   1.724
  798DIO     C944644   8.683   2.270   1.710
  798DIO    C1044645   8.610   2.150   1.747
  798DIO    C1144646   8.682   2.029   1.782
  798DIO    C1244647   8.827   2.033   1.794
  798DIO     F444648   8.891   1.921   1.831
  798DIO     O144649   8.478   2.144   1.708
  798DIO    C1344650   8.383   2.079   1.787
  798DIO     O244651   8.382   2.044   1.908
  798DIO    C1444652   8.254   2.064   1.719
  798DIO    C1544653   8.188   2.177   1.651
  798DIO     F544654   8.250   2.296   1.642
  798DIO    C1644655   8.057   2.166   1.589
  798DIO    C1744656   7.981   2.041   1.598
  798DIO    C1844657   8.050   1.924   1.650
  798DIO    C1944658   8.182   1.935   1.710
  798DIO     F644659   8.244   1.820   1.743
  798DIO    C2044660   7.841   2.031   1.545
  798DIO     O344661   7.771   2.156   1.541
  798DIO    C2144662   7.727   2.198   1.670
  798DIO    C2244663   7.638   2.092   1.735
  798DIO    C2344664   7.719   1.963   1.737
  798DIO     O444665   7.763   1.928   1.607
  798DIO    C2444666   7.505   2.070   1.659
  798DIO    C2544667   7.415   2.193   1.646
  798DIO    C2644668   7.376   2.256   1.779
  798DIO     H144669   9.097   1.980   1.661
  798DIO     H244670   9.056   2.338   1.918
  798DIO     H344671   8.879   2.366   1.699
  798DIO     H444672   8.627   2.355   1.671
  798DIO     H544673   8.628   1.938   1.804
  798DIO     H644674   8.019   2.250   1.533
  798DIO     H744675   8.007   1.825   1.639
  798DIO     H844676   7.850   2.001   1.440
  798DIO     H944677   7.814   2.220   1.733
  798DIO    H1044678   7.674   2.293   1.658
  798DIO    H1144679   7.616   2.122   1.838
  798DIO    H1244680   7.658   1.880   1.775
  798DIO    H1344681   7.805   1.972   1.805
  798DIO    H1444682   7.525   2.032   1.558
  798DIO    H1544683   7.449   1.992   1.711
  798DIO    H1644684   7.462   2.269   1.582
  798DIO    H1744685   7.323   2.163   1.594
  798DIO    H1844686   7.332   2.182   1.846
  798DIO    H1944687   7.463   2.301   1.828
  798DIO    H2044688   7.303   2.335   1.763
  799DIO     F144689   2.120   1.439   5.663
  799DIO     C144690   2.042   1.377   5.572
  799DIO     C244691   1.898   1.378   5.589
  799DIO     C344692   1.810   1.310   5.492
  799DIO     C444693   1.875   1.243   5.377
  799DIO     C544694   2.019   1.243   5.363
  799DIO     F244695   2.075   1.185   5.254
  799DIO     C644696   2.103   1.310   5.459
  799DIO     F344697   2.237   1.309   5.445
  799DIO     C744698   1.663   1.309   5.508
  799DIO     C844699   1.586   1.182   5.501
  799DIO     C944700   1.441   1.181   5.516
  799DIO    C1044701   1.369   1.306   5.529
  799DIO    C1144702   1.441   1.431   5.544
  799DIO    C1244703   1.585   1.432   5.531
  799DIO     F444704   1.650   1.550   5.540
  799DIO     O144705   1.237   1.297   5.567
  799DIO    C1344706   1.142   1.387   5.519
  799DIO     O244707   1.141   1.467   5.422
  799DIO    C1444708   1.013   1.375   5.588
  799DIO    C1544709   0.947   1.244   5.607
  799DIO     F544710   1.009   1.131   5.569
  799DIO    C1644711   0.816   1.231   5.668
  799DIO    C1744712   0.740   1.349   5.708
  799DIO    C1844713   0.809   1.477   5.706
  799DIO    C1944714   0.940   1.490   5.646
  799DIO     F644715   1.003   1.609   5.661
  799DIO    C2044716   0.599   1.337   5.761
  799DIO     O344717   0.530   1.221   5.716
  799DIO    C2144718   0.486   1.232   5.581
  799DIO    C2244719   0.397   1.355   5.562
  799DIO    C2344720   0.478   1.475   5.610
  799DIO     O444721   0.522   1.457   5.744
  799DIO    C2444722   0.264   1.346   5.641
  799DIO    C2544723   0.174   1.227   5.605
  799DIO    C2644724   0.135   1.221   5.458
  799DIO     H144725   1.856   1.430   5.674
  799DIO     H244726   1.814   1.200   5.298
  799DIO     H344727   1.638   1.088   5.489
  799DIO     H444728   1.386   1.088   5.519
  799DIO     H544729   1.387   1.524   5.559
  799DIO     H644730   0.778   1.131   5.687
  799DIO     H744731   0.766   1.564   5.755
  799DIO     H844732   0.609   1.324   5.870
  799DIO     H944733   0.573   1.237   5.514
  799DIO    H1044734   0.433   1.140   5.555
  799DIO    H1144735   0.375   1.367   5.456
  799DIO    H1244736   0.417   1.566   5.608
  799DIO    H1344737   0.564   1.493   5.545
  799DIO    H1444738   0.284   1.342   5.749
  799DIO    H1544739   0.208   1.438   5.624
  799DIO    H1644740   0.221   1.133   5.635
  799DIO    H1744741   0.082   1.235   5.665
  799DIO    H1844742   0.091   1.316   5.425
  799DIO    H1944743   0.222   1.199   5.395
  799DIO    H2044744   0.062   1.142   5.442
  800DIO     F144745   8.703  10.271   2.647
  800DIO     C144746   8.625  10.377   2.620
  800DIO     C244747   8.481  10.361   2.615
  800DIO     C344748   8.392  10.475   2.583
  800DIO     C444749   8.458  10.606   2.559
  800DIO     C544750   8.602  10.619   2.564
  800DIO     F244751   8.658  10.741   2.545
  800DIO     C644752   8.686  10.506   2.595
  800DIO     F344753   8.820  10.520   2.599
  800DIO     C744754   8.246  10.460   2.577
  800DIO     C844755   8.169  10.509   2.460
  800DIO     C944756   8.024  10.495   2.454
  800DIO    C1044757   7.952  10.441   2.568
  800DIO    C1144758   8.024  10.385   2.681
  800DIO    C1244759   8.168  10.397   2.685
  800DIO     F444760   8.233  10.349   2.794
  800DIO     O144761   7.819  10.409   2.546
  800DIO    C1344762   7.725  10.423   2.647
  800DIO     O244763   7.724  10.488   2.755
  800DIO    C1444764   7.596  10.363   2.613
  800DIO    C1544765   7.530  10.389   2.483
  800DIO     F544766   7.592  10.462   2.389
  800DIO    C1644767   7.399  10.335   2.450
  800DIO    C1744768   7.323  10.258   2.548
  800DIO    C1844769   7.392  10.217   2.670
  800DIO    C1944770   7.523  10.269   2.702
  800DIO     F644771   7.586  10.215   2.809
  800DIO    C2044772   7.182  10.212   2.519
  800DIO     O344773   7.113  10.294   2.425
  800DIO    C2144774   7.069  10.417   2.480
  800DIO    C2244775   6.980  10.394   2.602
  800DIO    C2344776   7.061  10.308   2.700
  800DIO     O444777   7.105  10.188   2.637
  800DIO    C2444778   6.847  10.323   2.567
  800DIO    C2544779   6.757  10.396   2.468
  800DIO    C2644780   6.718  10.536   2.511
  800DIO     H144781   8.439  10.263   2.636
  800DIO     H244782   8.397  10.694   2.545
  800DIO     H344783   8.220  10.552   2.375
  800DIO     H444784   7.969  10.523   2.366
  800DIO     H544785   7.970  10.341   2.763
  800DIO     H644786   7.361  10.351   2.350
  800DIO     H744787   7.349  10.142   2.735
  800DIO     H844788   7.192  10.114   2.471
  800DIO     H944789   7.156  10.478   2.507
  800DIO    H1044790   7.016  10.472   2.402
  800DIO    H1144791   6.957  10.490   2.650
  800DIO    H1244792   7.000  10.280   2.786
  800DIO    H1344793   7.147  10.364   2.738
  800DIO    H1444794   6.867  10.222   2.528
  800DIO    H1544795   6.791  10.308   2.660
  800DIO    H1644796   6.804  10.399   2.369
  800DIO    H1744797   6.665  10.337   2.455
  800DIO    H1844798   6.674  10.536   2.611
  800DIO    H1944799   6.805  10.603   2.511
  800DIO    H2044800   6.644  10.578   2.442
  801DIO     F144801   2.115   7.408   9.135
  801DIO     C144802   2.037   7.474   9.223
  801DIO     C244803   1.893   7.472   9.206
  801DIO     C344804   1.804   7.546   9.299
  801DIO     C444805   1.870   7.618   9.411
  801DIO     C544806   2.014   7.618   9.425
  801DIO     F244807   2.069   7.682   9.531
  801DIO     C644808   2.098   7.546   9.333
  801DIO     F344809   2.232   7.548   9.347
  801DIO     C744810   1.658   7.546   9.283
  801DIO     C844811   1.581   7.672   9.284
  801DIO     C944812   1.436   7.672   9.269
  801DIO    C1044813   1.363   7.547   9.263
  801DIO    C1144814   1.436   7.421   9.254
  801DIO    C1244815   1.580   7.421   9.267
  801DIO     F444816   1.645   7.303   9.264
  801DIO     O144817   1.231   7.555   9.224
  801DIO    C1344818   1.137   7.467   9.276
  801DIO     O244819   1.136   7.392   9.378
  801DIO    C1444820   1.008   7.475   9.207
  801DIO    C1544821   0.941   7.605   9.182
  801DIO     F544822   1.004   7.720   9.214
  801DIO    C1644823   0.811   7.616   9.120
  801DIO    C1744824   0.735   7.496   9.086
  801DIO    C1844825   0.804   7.367   9.094
  801DIO    C1944826   0.935   7.357   9.155
  801DIO     F644827   0.998   7.238   9.146
  801DIO    C2044828   0.594   7.504   9.032
  801DIO     O344829   0.524   7.623   9.071
  801DIO    C2144830   0.481   7.619   9.207
  801DIO    C2244831   0.392   7.497   9.231
  801DIO    C2344832   0.473   7.374   9.190
  801DIO     O444833   0.517   7.386   9.055
  801DIO    C2444834   0.259   7.502   9.153
  801DIO    C2544835   0.168   7.622   9.182
  801DIO    C2644836   0.130   7.636   9.329
  801DIO     H144837   1.850   7.416   9.124
  801DIO     H244838   1.809   7.665   9.488
  801DIO     H344839   1.632   7.767   9.291
  801DIO     H444840   1.381   7.765   9.261
  801DIO     H544841   1.382   7.328   9.244
  801DIO     H644842   0.772   7.714   9.096
  801DIO     H744843   0.761   7.278   9.050
  801DIO     H844844   0.604   7.512   8.923
  801DIO     H944845   0.567   7.617   9.274
  801DIO    H1044846   0.428   7.712   9.228
  801DIO    H1144847   0.369   7.490   9.338
  801DIO    H1244848   0.411   7.284   9.197
  801DIO    H1344849   0.559   7.360   9.256
  801DIO    H1444850   0.279   7.501   9.045
  801DIO    H1544851   0.203   7.411   9.174
  801DIO    H1644852   0.216   7.715   9.148
  801DIO    H1744853   0.077   7.611   9.123
  801DIO    H1844854   0.086   7.543   9.367
  801DIO    H1944855   0.216   7.661   9.391
  801DIO    H2044856   0.056   7.716   9.341
  802DIO     F144857   7.575   8.312   1.633
  802DIO     C144858   7.497   8.261   1.730
  802DIO     C244859   7.353   8.275   1.721
  802DIO     C344860   7.264   8.222   1.827
  802DIO     C444861   7.330   8.153   1.940
  802DIO     C544862   7.474   8.140   1.947
  802DIO     F244863   7.530   8.072   2.049
  802DIO     C644864   7.558   8.193   1.842
  802DIO     F344865   7.692   8.181   1.850
  802DIO     C744866   7.118   8.237   1.820
  802DIO     C844867   7.041   8.290   1.935
  802DIO     C944868   6.896   8.304   1.929
  802DIO    C1044869   6.824   8.256   1.813
  802DIO    C1144870   6.896   8.210   1.695
  802DIO    C1244871   7.040   8.199   1.701
  802DIO     F444872   7.105   8.151   1.593
  802DIO     O144873   6.691   8.294   1.803
  802DIO    C1344874   6.597   8.210   1.746
  802DIO     O244875   6.596   8.086   1.722
  802DIO    C1444876   6.468   8.276   1.724
  802DIO    C1544877   6.402   8.354   1.830
  802DIO     F544878   6.464   8.375   1.948
  802DIO    C1644879   6.271   8.415   1.813
  802DIO    C1744880   6.195   8.394   1.690
  802DIO    C1844881   6.264   8.331   1.578
  802DIO    C1944882   6.395   8.272   1.595
  802DIO     F644883   6.458   8.229   1.483
  802DIO    C2044884   6.054   8.446   1.675
  802DIO     O344885   5.985   8.462   1.799
  802DIO    C2144886   5.941   8.337   1.853
  802DIO    C2244887   5.852   8.263   1.754
  802DIO    C2344888   5.933   8.248   1.625
  802DIO     O444889   5.977   8.375   1.578
  802DIO    C2444890   5.719   8.336   1.725
  802DIO    C2544891   5.629   8.361   1.846
  802DIO    C2644892   5.590   8.235   1.921
  802DIO     H144893   7.311   8.325   1.635
  802DIO     H244894   7.269   8.104   2.016
  802DIO     H344895   7.092   8.325   2.023
  802DIO     H444896   6.841   8.351   2.009
  802DIO     H544897   6.842   8.179   1.607
  802DIO     H644898   6.233   8.478   1.892
  802DIO     H744899   6.221   8.333   1.479
  802DIO     H844900   6.064   8.548   1.635
  802DIO     H944901   6.028   8.276   1.881
  802DIO    H1044902   5.888   8.358   1.947
  802DIO    H1144903   5.829   8.163   1.793
  802DIO    H1244904   5.872   8.203   1.546
  802DIO    H1344905   6.019   8.182   1.641
  802DIO    H1444906   5.739   8.433   1.677
  802DIO    H1544907   5.663   8.277   1.651
  802DIO    H1644908   5.676   8.432   1.915
  802DIO    H1744909   5.537   8.410   1.810
  802DIO    H1844910   5.546   8.160   1.854
  802DIO    H1944911   5.677   8.190   1.971
  802DIO    H2044912   5.516   8.258   1.999
  803DIO     F144913   7.432   5.668   3.419
  803DIO     C144914   7.355   5.743   3.499
  803DIO     C244915   7.211   5.739   3.482
  803DIO     C344916   7.122   5.822   3.567
  803DIO     C444917   7.187   5.906   3.670
  803DIO     C544918   7.332   5.908   3.684
  803DIO     F244919   7.387   5.983   3.782
  803DIO     C644920   7.415   5.826   3.600
  803DIO     F344921   7.549   5.830   3.614
  803DIO     C744922   6.976   5.821   3.551
  803DIO     C844923   6.898   5.946   3.538
  803DIO     C944924   6.754   5.945   3.523
  803DIO    C1044925   6.681   5.819   3.530
  803DIO    C1144926   6.754   5.694   3.535
  803DIO    C1244927   6.898   5.695   3.548
  803DIO     F444928   6.963   5.577   3.558
  803DIO     O144929   6.549   5.823   3.491
  803DIO    C1344930   6.454   5.741   3.552
  803DIO     O244931   6.454   5.678   3.661
  803DIO    C1444932   6.325   5.742   3.483
  803DIO    C1544933   6.259   5.869   3.444
  803DIO     F544934   6.322   5.987   3.463
  803DIO    C1644935   6.128   5.872   3.381
  803DIO    C1744936   6.052   5.749   3.360
  803DIO    C1844937   6.121   5.623   3.382
  803DIO    C1944938   6.253   5.619   3.443
  803DIO     F644939   6.315   5.500   3.447
  803DIO    C2044940   5.912   5.752   3.305
  803DIO     O344941   5.842   5.875   3.332
  803DIO    C2144942   5.798   5.885   3.467
  803DIO    C2244943   5.709   5.767   3.505
  803DIO    C2344944   5.790   5.640   3.476
  803DIO     O444945   5.834   5.637   3.341
  803DIO    C2444946   5.577   5.763   3.426
  803DIO    C2544947   5.486   5.885   3.442
  803DIO    C2644948   5.448   5.915   3.586
  803DIO     H144949   7.168   5.675   3.406
  803DIO     H244950   7.127   5.961   3.741
  803DIO     H344951   6.950   6.041   3.535
  803DIO     H444952   6.699   6.036   3.505
  803DIO     H544953   6.699   5.600   3.535
  803DIO     H644954   6.090   5.968   3.347
  803DIO     H744955   6.078   5.529   3.348
  803DIO     H844956   5.921   5.748   3.196
  803DIO     H944957   5.885   5.890   3.534
  803DIO    H1044958   5.746   5.980   3.478
  803DIO    H1144959   5.687   5.771   3.612
  803DIO    H1244960   5.729   5.551   3.493
  803DIO    H1344961   5.876   5.633   3.544
  803DIO    H1444962   5.597   5.750   3.319
  803DIO    H1544963   5.520   5.674   3.457
  803DIO    H1644964   5.533   5.974   3.398
  803DIO    H1744965   5.394   5.868   3.384
  803DIO    H1844966   5.404   5.827   3.634
  803DIO    H1944967   5.534   5.947   3.645
  803DIO    H2044968   5.374   5.996   3.590
  804DIO     F144969   4.469   4.800   2.961
  804DIO     C144970   4.391   4.690   2.970
  804DIO     C244971   4.247   4.706   2.977
  804DIO     C344972   4.158   4.588   2.989
  804DIO     C444973   4.224   4.455   2.989
  804DIO     C544974   4.368   4.442   2.982
  804DIO     F244975   4.423   4.320   2.979
  804DIO     C644976   4.452   4.559   2.971
  804DIO     F344977   4.585   4.547   2.966
  804DIO     C744978   4.012   4.601   2.997
  804DIO     C844979   3.935   4.532   3.103
  804DIO     C944980   3.790   4.545   3.112
  804DIO    C1044981   3.717   4.618   3.009
  804DIO    C1144982   3.790   4.693   2.908
  804DIO    C1244983   3.934   4.682   2.902
  804DIO     F444984   3.999   4.748   2.804
  804DIO     O144985   3.585   4.646   3.037
  804DIO    C1344986   3.491   4.650   2.935
  804DIO     O244987   3.490   4.605   2.817
  804DIO    C1444988   3.361   4.704   2.979
  804DIO    C1544989   3.295   4.655   3.102
  804DIO     F544990   3.358   4.566   3.182
  804DIO    C1644991   3.164   4.701   3.144
  804DIO    C1744992   3.089   4.795   3.062
  804DIO    C1844993   3.157   4.857   2.949
  804DIO    C1944994   3.289   4.811   2.908
  804DIO     F644995   3.351   4.883   2.812
  804DIO    C2044996   2.948   4.835   3.098
  804DIO     O344997   2.878   4.738   3.177
  804DIO    C2144998   2.834   4.626   3.100
  804DIO    C2244999   2.746   4.671   2.984
  804DIO    C2345000   2.826   4.773   2.903
  804DIO     O445001   2.871   4.880   2.986
  804DIO    C2445002   2.613   4.735   3.031
  804DIO    C2545003   2.522   4.645   3.116
  804DIO    C2645004   2.484   4.515   3.049
  804DIO     H145005   4.204   4.805   2.974
  804DIO     H245006   4.163   4.365   2.988
  804DIO     H345007   3.986   4.476   3.180
  804DIO     H445008   3.735   4.502   3.194
  804DIO     H545009   3.735   4.752   2.836
  804DIO     H645010   3.126   4.668   3.240
  804DIO     H745011   3.114   4.942   2.898
  804DIO     H845012   2.958   4.923   3.163
  804DIO     H945013   2.921   4.571   3.063
  804DIO    H1045014   2.782   4.558   3.167
  804DIO    H1145015   2.723   4.585   2.920
  804DIO    H1245016   2.765   4.815   2.823
  804DIO    H1345017   2.912   4.725   2.855
  804DIO    H1445018   2.633   4.827   3.088
  804DIO    H1545019   2.556   4.766   2.942
  804DIO    H1645020   2.569   4.624   3.213
  804DIO    H1745021   2.430   4.701   3.139
  804DIO    H1845022   2.440   4.532   2.950
  804DIO    H1945023   2.570   4.449   3.037
  804DIO    H2045024   2.410   4.461   3.110
  805DIO     F145025   6.456   6.693   0.546
  805DIO     C145026   6.379   6.743   0.448
  805DIO     C245027   6.235   6.728   0.457
  805DIO     C345028   6.146   6.779   0.350
  805DIO     C445029   6.211   6.847   0.236
  805DIO     C545030   6.356   6.860   0.229
  805DIO     F245031   6.411   6.926   0.125
  805DIO     C645032   6.439   6.808   0.335
  805DIO     F345033   6.573   6.820   0.327
  805DIO     C745034   5.999   6.765   0.357
  805DIO     C845035   5.922   6.709   0.244
  805DIO     C945036   5.778   6.696   0.250
  805DIO    C1045037   5.705   6.746   0.365
  805DIO    C1145038   5.777   6.794   0.482
  805DIO    C1245039   5.922   6.805   0.476
  805DIO     F445040   5.986   6.855   0.583
  805DIO     O145041   5.573   6.708   0.375
  805DIO    C1345042   5.478   6.793   0.431
  805DIO     O245043   5.477   6.917   0.453
  805DIO    C1445044   5.349   6.728   0.454
  805DIO    C1545045   5.283   6.647   0.349
  805DIO     F545046   5.345   6.625   0.232
  805DIO    C1645047   5.152   6.587   0.367
  805DIO    C1745048   5.076   6.610   0.490
  805DIO    C1845049   5.145   6.675   0.601
  805DIO    C1945050   5.277   6.733   0.583
  805DIO     F645051   5.339   6.778   0.694
  805DIO    C2045052   4.936   6.558   0.506
  805DIO     O345053   4.866   6.541   0.382
  805DIO    C2145054   4.822   6.664   0.326
  805DIO    C2245055   4.733   6.740   0.424
  805DIO    C2345056   4.814   6.757   0.552
  805DIO     O445057   4.858   6.631   0.602
  805DIO    C2445058   4.600   6.667   0.454
  805DIO    C2545059   4.510   6.640   0.334
  805DIO    C2645060   4.471   6.765   0.257
  805DIO     H145061   6.192   6.679   0.544
  805DIO     H245062   6.151   6.895   0.160
  805DIO     H345063   5.974   6.673   0.156
  805DIO     H445064   5.722   6.647   0.171
  805DIO     H545065   5.723   6.826   0.569
  805DIO     H645066   5.114   6.522   0.290
  805DIO     H745067   5.102   6.675   0.701
  805DIO     H845068   4.945   6.457   0.548
  805DIO     H945069   4.909   6.725   0.298
  805DIO    H1045070   4.769   6.642   0.233
  805DIO    H1145071   4.711   6.839   0.383
  805DIO    H1245072   4.753   6.804   0.630
  805DIO    H1345073   4.900   6.823   0.536
  805DIO    H1445074   4.620   6.571   0.504
  805DIO    H1545075   4.544   6.727   0.527
  805DIO    H1645076   4.557   6.568   0.266
  805DIO    H1745077   4.418   6.592   0.370
  805DIO    H1845078   4.427   6.841   0.323
  805DIO    H1945079   4.558   6.810   0.206
  805DIO    H2045080   4.398   6.741   0.179
  806DIO     F145081   7.941   3.313   1.839
  806DIO     C145082   7.863   3.281   1.733
  806DIO     C245083   7.719   3.277   1.750
  806DIO     C345084   7.630   3.241   1.637
  806DIO     C445085   7.696   3.211   1.507
  806DIO     C545086   7.840   3.216   1.493
  806DIO     F245087   7.896   3.193   1.373
  806DIO     C645088   7.924   3.251   1.606
  806DIO     F345089   8.058   3.254   1.592
  806DIO     C745090   7.484   3.235   1.652
  806DIO     C845091   7.407   3.117   1.607
  806DIO     C945092   7.262   3.111   1.622
  806DIO    C1045093   7.190   3.227   1.671
  806DIO    C1145094   7.262   3.342   1.722
  806DIO    C1245095   7.406   3.346   1.711
  806DIO     F445096   7.471   3.456   1.754
  806DIO     O145097   7.057   3.206   1.704
  806DIO    C1345098   6.963   3.307   1.686
  806DIO     O245099   6.962   3.412   1.617
  806DIO    C1445100   6.834   3.275   1.748
  806DIO    C1545101   6.767   3.144   1.727
  806DIO     F545102   6.830   3.047   1.657
  806DIO    C1645103   6.637   3.113   1.781
  806DIO    C1745104   6.561   3.214   1.855
  806DIO    C1845105   6.630   3.337   1.891
  806DIO    C1945106   6.761   3.367   1.838
  806DIO     F645107   6.824   3.476   1.888
  806DIO    C2045108   6.420   3.187   1.902
  806DIO     O345109   6.350   3.089   1.824
  806DIO    C2145110   6.307   3.140   1.699
  806DIO    C2245111   6.218   3.263   1.717
  806DIO    C2345112   6.299   3.364   1.799
  806DIO     O445113   6.343   3.306   1.922
  806DIO    C2445114   6.085   3.231   1.790
  806DIO    C2545115   5.994   3.128   1.720
  806DIO    C2645116   5.956   3.166   1.578
  806DIO     H145117   7.677   3.301   1.846
  806DIO     H245118   7.635   3.194   1.419
  806DIO     H345119   7.458   3.030   1.568
  806DIO     H445120   7.207   3.022   1.597
  806DIO     H545121   7.208   3.425   1.764
  806DIO     H645122   6.599   3.012   1.770
  806DIO     H745123   6.587   3.406   1.963
  806DIO     H845124   6.430   3.142   2.002
  806DIO     H945125   6.393   3.165   1.636
  806DIO    H1045126   6.254   3.060   1.646
  806DIO    H1145127   6.195   3.307   1.620
  806DIO    H1245128   6.238   3.451   1.824
  806DIO    H1345129   6.385   3.400   1.742
  806DIO    H1445130   6.105   3.195   1.891
  806DIO    H1545131   6.029   3.324   1.801
  806DIO    H1645132   6.042   3.030   1.721
  806DIO    H1745133   5.903   3.118   1.780
  806DIO    H1845134   5.912   3.267   1.575
  806DIO    H1945135   6.043   3.164   1.511
  806DIO    H2045136   5.882   3.095   1.539
  807DIO     F145137   6.158   7.893  10.051
  807DIO     C145138   6.080   7.934  10.153
  807DIO     C245139   5.936   7.937  10.136
  807DIO     C345140   5.847   7.984  10.245
  807DIO     C445141   5.913   8.025  10.371
  807DIO     C545142   6.057   8.022  10.385
  807DIO     F245143   6.112   8.057  10.503
  807DIO     C645144   6.141   7.976  10.277
  807DIO     F345145   6.275   7.974  10.291
  807DIO     C745146   5.701   7.988  10.230
  807DIO     C845147   5.624   8.110  10.263
  807DIO     C945148   5.479   8.114  10.248
  807DIO    C1045149   5.406   7.994  10.210
  807DIO    C1145150   5.479   7.875  10.169
  807DIO    C1245151   5.623   7.872  10.182
  807DIO     F445152   5.688   7.758  10.149
  807DIO     O145153   5.274   8.012  10.175
  807DIO    C1345154   5.180   7.913  10.202
  807DIO     O245155   5.179   7.815  10.281
  807DIO    C1445156   5.051   7.939  10.138
  807DIO    C1545157   4.984   8.071  10.146
  807DIO     F545158   5.047   8.174  10.207
  807DIO    C1645159   4.854   8.097  10.089
  807DIO    C1745160   4.778   7.990  10.026
  807DIO    C1845161   4.847   7.863  10.001
  807DIO    C1945162   4.978   7.838  10.057
  807DIO     F645163   5.041   7.725  10.018
  807DIO    C2045164   4.637   8.012   9.976
  807DIO     O345165   4.567   8.117  10.044
  807DIO    C2145166   4.524   8.078  10.174
  807DIO    C2245167   4.435   7.954  10.167
  807DIO    C2345168   4.516   7.846  10.095
  807DIO     O445169   4.560   7.892   9.968
  807DIO    C2445170   4.302   7.979  10.092
  807DIO    C2545171   4.211   8.087  10.151
  807DIO    C2645172   4.173   8.063  10.296
  807DIO     H145173   5.893   7.903  10.042
  807DIO     H245174   5.852   8.051  10.457
  807DIO     H345175   5.675   8.200  10.293
  807DIO     H445176   5.424   8.206  10.264
  807DIO     H545177   5.425   7.788  10.136
  807DIO     H645178   4.815   8.198  10.091
  807DIO     H745179   4.804   7.788   9.936
  807DIO     H845180   4.647   8.047   9.872
  807DIO     H945181   4.610   8.059  10.238
  807DIO    H1045182   4.471   8.162  10.219
  807DIO    H1145183   4.412   7.919  10.268
  807DIO    H1245184   4.454   7.756  10.079
  807DIO    H1345185   4.602   7.815  10.156
  807DIO    H1445186   4.322   8.005   9.987
  807DIO    H1545187   4.246   7.885  10.090
  807DIO    H1645188   4.259   8.186  10.142
  807DIO    H1745189   4.120   8.092  10.091
  807DIO    H1845190   4.129   7.964  10.310
  807DIO    H1945191   4.259   8.072  10.363
  807DIO    H2045192   4.099   8.138  10.328
  808DIO     F145193   9.494   0.653   4.123
  808DIO     C145194   9.416   0.708   4.028
  808DIO     C245195   9.272   0.694   4.036
  808DIO     C345196   9.183   0.751   3.932
  808DIO     C445197   9.249   0.825   3.822
  808DIO     C545198   9.393   0.838   3.816
  808DIO     F245199   9.448   0.910   3.717
  808DIO     C645200   9.477   0.781   3.919
  808DIO     F345201   9.611   0.793   3.911
  808DIO     C745202   9.037   0.736   3.938
  808DIO     C845203   8.960   0.687   3.822
  808DIO     C945204   8.815   0.673   3.828
  808DIO    C1045205   8.742   0.716   3.945
  808DIO    C1145206   8.815   0.758   4.064
  808DIO    C1245207   8.959   0.769   4.059
  808DIO     F445208   9.024   0.813   4.169
  808DIO     O145209   8.610   0.678   3.953
  808DIO    C1345210   8.516   0.760   4.014
  808DIO     O245211   8.515   0.883   4.043
  808DIO    C1445212   8.387   0.693   4.033
  808DIO    C1545213   8.320   0.619   3.924
  808DIO     F545214   8.383   0.603   3.805
  808DIO    C1645215   8.190   0.558   3.938
  808DIO    C1745216   8.114   0.574   4.062
  808DIO    C1845217   8.183   0.631   4.177
  808DIO    C1945218   8.314   0.691   4.162
  808DIO     F645219   8.377   0.730   4.276
  808DIO    C2045220   7.973   0.520   4.075
  808DIO     O345221   7.903   0.511   3.950
  808DIO    C2145222   7.860   0.637   3.901
  808DIO    C2245223   7.771   0.707   4.004
  808DIO    C2345224   7.852   0.717   4.133
  808DIO     O445225   7.896   0.588   4.175
  808DIO    C2445226   7.638   0.633   4.030
  808DIO    C2545227   7.547   0.613   3.908
  808DIO    C2645228   7.509   0.742   3.838
  808DIO     H145229   9.229   0.640   4.120
  808DIO     H245230   9.188   0.877   3.749
  808DIO     H345231   9.011   0.656   3.732
  808DIO     H445232   8.760   0.630   3.745
  808DIO     H545233   8.761   0.784   4.154
  808DIO     H645234   8.151   0.498   3.857
  808DIO     H745235   8.140   0.626   4.276
  808DIO     H845236   7.983   0.417   4.111
  808DIO     H945237   7.946   0.699   3.877
  808DIO    H1045238   7.807   0.620   3.807
  808DIO    H1145239   7.748   0.808   3.969
  808DIO    H1245240   7.790   0.759   4.214
  808DIO    H1345241   7.938   0.784   4.120
  808DIO    H1445242   7.658   0.534   4.073
  808DIO    H1545243   7.582   0.688   4.106
  808DIO    H1645244   7.595   0.545   3.836
  808DIO    H1745245   7.456   0.563   3.941
  808DIO    H1845246   7.465   0.814   3.908
  808DIO    H1945247   7.595   0.789   3.790
  808DIO    H2045248   7.435   0.722   3.760
  809DIO     F145249   5.026   0.469   3.186
  809DIO     C145250   4.948   0.401   3.100
  809DIO     C245251   4.804   0.403   3.117
  809DIO     C345252   4.715   0.328   3.025
  809DIO     C445253   4.781   0.253   2.915
  809DIO     C545254   4.925   0.253   2.901
  809DIO     F245255   4.981   0.187   2.797
  809DIO     C645256   5.009   0.327   2.992
  809DIO     F345257   5.143   0.324   2.978
  809DIO     C745258   4.569   0.328   3.041
  809DIO     C845259   4.492   0.202   3.043
  809DIO     C945260   4.347   0.202   3.058
  809DIO    C1045261   4.275   0.328   3.062
  809DIO    C1145262   4.347   0.453   3.068
  809DIO    C1245263   4.491   0.453   3.055
  809DIO     F445264   4.556   0.571   3.055
  809DIO     O145265   4.142   0.321   3.100
  809DIO    C1345266   4.048   0.408   3.047
  809DIO     O245267   4.047   0.480   2.944
  809DIO    C1445268   3.919   0.400   3.116
  809DIO    C1545269   3.853   0.271   3.144
  809DIO     F545270   3.915   0.155   3.115
  809DIO    C1645271   3.722   0.262   3.206
  809DIO    C1745272   3.646   0.383   3.237
  809DIO    C1845273   3.715   0.511   3.226
  809DIO    C1945274   3.846   0.520   3.166
  809DIO     F645275   3.909   0.639   3.172
  809DIO    C2045276   3.505   0.375   3.292
  809DIO     O345277   3.436   0.256   3.255
  809DIO    C2145278   3.392   0.257   3.119
  809DIO    C2245279   3.303   0.378   3.092
  809DIO    C2345280   3.384   0.502   3.131
  809DIO     O445281   3.428   0.493   3.266
  809DIO    C2445282   3.170   0.375   3.171
  809DIO    C2545283   3.080   0.254   3.144
  809DIO    C2645284   3.041   0.237   2.998
  809DIO     H145285   4.762   0.461   3.198
  809DIO     H245286   4.720   0.204   2.840
  809DIO     H345287   4.543   0.107   3.039
  809DIO     H445288   4.292   0.110   3.068
  809DIO     H545289   4.293   0.546   3.076
  809DIO     H645290   3.684   0.164   3.232
  809DIO     H745291   3.672   0.601   3.268
  809DIO     H845292   3.515   0.370   3.401
  809DIO     H945293   3.479   0.257   3.053
  809DIO    H1045294   3.339   0.164   3.100
  809DIO    H1145295   3.280   0.383   2.985
  809DIO    H1245296   3.323   0.592   3.122
  809DIO    H1345297   3.470   0.515   3.064
  809DIO    H1445298   3.190   0.379   3.279
  809DIO    H1545299   3.114   0.466   3.147
  809DIO    H1645300   3.127   0.162   3.180
  809DIO    H1745301   2.988   0.267   3.203
  809DIO    H1845302   2.997   0.329   2.958
  809DIO    H1945303   3.128   0.211   2.937
  809DIO    H2045304   2.967   0.157   2.988
  810DIO     F145305   4.533   4.014   3.540
  810DIO     C145306   4.455   4.081   3.627
  810DIO     C245307   4.311   4.079   3.610
  810DIO     C345308   4.223   4.153   3.702
  810DIO     C445309   4.288   4.227   3.813
  810DIO     C545310   4.432   4.227   3.827
  810DIO     F245311   4.488   4.292   3.932
  810DIO     C645312   4.516   4.154   3.735
  810DIO     F345313   4.650   4.156   3.749
  810DIO     C745314   4.076   4.153   3.686
  810DIO     C845315   3.999   4.279   3.685
  810DIO     C945316   3.854   4.280   3.670
  810DIO    C1045317   3.782   4.154   3.665
  810DIO    C1145318   3.854   4.028   3.658
  810DIO    C1245319   3.998   4.029   3.671
  810DIO     F445320   4.063   3.910   3.669
  810DIO     O145321   3.650   4.161   3.627
  810DIO    C1345322   3.555   4.074   3.680
  810DIO     O245323   3.554   4.000   3.782
  810DIO    C1445324   3.426   4.082   3.611
  810DIO    C1545325   3.360   4.211   3.584
  810DIO     F545326   3.422   4.327   3.614
  810DIO    C1645327   3.229   4.221   3.522
  810DIO    C1745328   3.153   4.101   3.489
  810DIO    C1845329   3.222   3.972   3.499
  810DIO    C1945330   3.353   3.963   3.560
  810DIO     F645331   3.416   3.844   3.552
  810DIO    C2045332   3.012   4.109   3.435
  810DIO     O345333   2.943   4.228   3.473
  810DIO    C2145334   2.899   4.225   3.609
  810DIO    C2245335   2.810   4.104   3.635
  810DIO    C2345336   2.891   3.980   3.595
  810DIO     O445337   2.935   3.991   3.460
  810DIO    C2445338   2.677   4.108   3.556
  810DIO    C2545339   2.587   4.228   3.584
  810DIO    C2645340   2.548   4.244   3.730
  810DIO     H145341   4.269   4.022   3.528
  810DIO     H245342   4.227   4.275   3.889
  810DIO     H345343   4.051   4.374   3.691
  810DIO     H445344   3.799   4.372   3.661
  810DIO     H545345   3.800   3.935   3.649
  810DIO     H645346   3.191   4.319   3.497
  810DIO     H745347   3.179   3.883   3.456
  810DIO     H845348   3.022   4.115   3.326
  810DIO     H945349   2.986   4.224   3.676
  810DIO    H1045350   2.846   4.318   3.629
  810DIO    H1145351   2.788   4.098   3.742
  810DIO    H1245352   2.830   3.890   3.603
  810DIO    H1345353   2.977   3.967   3.661
  810DIO    H1445354   2.697   4.105   3.448
  810DIO    H1545355   2.621   4.017   3.579
  810DIO    H1645356   2.634   4.321   3.549
  810DIO    H1745357   2.495   4.216   3.525
  810DIO    H1845358   2.504   4.151   3.770
  810DIO    H1945359   2.635   4.270   3.792
  810DIO    H2045360   2.475   4.324   3.741
  811DIO     F145361   7.356   0.584   8.386
  811DIO     C145362   7.279   0.479   8.422
  811DIO     C245363   7.135   0.496   8.425
  811DIO     C345364   7.046   0.385   8.466
  811DIO     C445365   7.111   0.256   8.500
  811DIO     C545366   7.256   0.242   8.495
  811DIO     F245367   7.311   0.123   8.523
  811DIO     C645368   7.339   0.353   8.456
  811DIO     F345369   7.473   0.339   8.454
  811DIO     C745370   6.899   0.400   8.471
  811DIO     C845371   6.822   0.360   8.591
  811DIO     C945372   6.678   0.374   8.596
  811DIO    C1045373   6.605   0.419   8.478
  811DIO    C1145374   6.677   0.467   8.362
  811DIO    C1245375   6.822   0.455   8.358
  811DIO     F445376   6.886   0.494   8.247
  811DIO     O145377   6.473   0.453   8.498
  811DIO    C1345378   6.378   0.432   8.398
  811DIO     O245379   6.377   0.358   8.295
  811DIO    C1445380   6.249   0.494   8.428
  811DIO    C1545381   6.183   0.478   8.559
  811DIO     F545382   6.245   0.412   8.658
  811DIO    C1645383   6.052   0.534   8.588
  811DIO    C1745384   5.976   0.603   8.485
  811DIO    C1845385   6.045   0.635   8.360
  811DIO    C1945386   6.177   0.581   8.332
  811DIO     F645387   6.239   0.627   8.221
  811DIO    C2045388   5.836   0.652   8.510
  811DIO     O345389   5.766   0.577   8.610
  811DIO    C2145390   5.722   0.450   8.564
  811DIO    C2245391   5.633   0.464   8.441
  811DIO    C2345392   5.714   0.542   8.337
  811DIO     O445393   5.758   0.667   8.391
  811DIO    C2445394   5.500   0.538   8.470
  811DIO    C2545395   5.410   0.472   8.575
  811DIO    C2645396   5.371   0.329   8.542
  811DIO     H145397   7.092   0.592   8.398
  811DIO     H245398   7.051   0.169   8.520
  811DIO     H345399   6.874   0.323   8.679
  811DIO     H445400   6.622   0.353   8.686
  811DIO     H545401   6.623   0.505   8.277
  811DIO     H645402   6.014   0.525   8.689
  811DIO     H745403   6.002   0.705   8.289
  811DIO     H845404   5.845   0.753   8.551
  811DIO     H945405   5.809   0.387   8.541
  811DIO    H1045406   5.669   0.400   8.646
  811DIO    H1145407   5.611   0.365   8.400
  811DIO    H1245408   5.653   0.564   8.249
  811DIO    H1345409   5.800   0.484   8.302
  811DIO    H1445410   5.520   0.641   8.502
  811DIO    H1545411   5.444   0.546   8.376
  811DIO    H1645412   5.457   0.476   8.674
  811DIO    H1745413   5.318   0.532   8.583
  811DIO    H1845414   5.327   0.321   8.442
  811DIO    H1945415   5.458   0.262   8.547
  811DIO    H2045416   5.298   0.292   8.614
  812DIO     F145417   9.383   0.809   2.485
  812DIO     C145418   9.305   0.916   2.459
  812DIO     C245419   9.161   0.900   2.454
  812DIO     C345420   9.072   1.014   2.423
  812DIO     C445421   9.138   1.145   2.400
  812DIO     C545422   9.282   1.159   2.405
  812DIO     F245423   9.337   1.280   2.388
  812DIO     C645424   9.366   1.045   2.435
  812DIO     F345425   9.499   1.059   2.439
  812DIO     C745426   8.926   1.000   2.417
  812DIO     C845427   8.849   1.050   2.301
  812DIO     C945428   8.704   1.036   2.295
  812DIO    C1045429   8.631   0.981   2.408
  812DIO    C1145430   8.704   0.924   2.520
  812DIO    C1245431   8.848   0.936   2.525
  812DIO     F445432   8.913   0.887   2.632
  812DIO     O145433   8.499   0.949   2.385
  812DIO    C1345434   8.405   0.962   2.487
  812DIO     O245435   8.404   1.026   2.595
  812DIO    C1445436   8.276   0.902   2.452
  812DIO    C1545437   8.209   0.929   2.322
  812DIO     F545438   8.272   1.004   2.229
  812DIO    C1645439   8.078   0.876   2.288
  812DIO    C1745440   8.003   0.798   2.386
  812DIO    C1845441   8.071   0.756   2.507
  812DIO    C1945442   8.203   0.808   2.540
  812DIO     F645443   8.266   0.753   2.646
  812DIO    C2045444   7.862   0.752   2.356
  812DIO     O345445   7.792   0.835   2.263
  812DIO    C2145446   7.749   0.958   2.320
  812DIO    C2245447   7.660   0.933   2.441
  812DIO    C2345448   7.740   0.846   2.538
  812DIO     O445449   7.785   0.727   2.474
  812DIO    C2445450   7.527   0.862   2.406
  812DIO    C2545451   7.436   0.936   2.307
  812DIO    C2645452   7.398   1.076   2.352
  812DIO     H145453   9.118   0.802   2.474
  812DIO     H245454   9.077   1.234   2.387
  812DIO     H345455   8.900   1.093   2.216
  812DIO     H445456   8.649   1.065   2.206
  812DIO     H545457   8.649   0.878   2.601
  812DIO     H645458   8.040   0.893   2.188
  812DIO     H745459   8.029   0.680   2.572
  812DIO     H845460   7.872   0.655   2.307
  812DIO     H945461   7.835   1.019   2.347
  812DIO    H1045462   7.696   1.014   2.242
  812DIO    H1145463   7.637   1.028   2.490
  812DIO    H1245464   7.679   0.817   2.624
  812DIO    H1345465   7.827   0.902   2.577
  812DIO    H1445466   7.547   0.762   2.365
  812DIO    H1545467   7.470   0.846   2.499
  812DIO    H1645468   7.484   0.941   2.208
  812DIO    H1745469   7.344   0.877   2.294
  812DIO    H1845470   7.354   1.075   2.452
  812DIO    H1945471   7.484   1.143   2.352
  812DIO    H2045472   7.324   1.119   2.283
  813DIO     F145473   1.362   6.156   2.604
  813DIO     C145474   1.285   6.253   2.655
  813DIO     C245475   1.141   6.244   2.640
  813DIO     C345476   1.052   6.350   2.693
  813DIO     C445477   1.117   6.464   2.762
  813DIO     C545478   1.262   6.470   2.775
  813DIO     F245479   1.317   6.573   2.843
  813DIO     C645480   1.345   6.366   2.722
  813DIO     F345481   1.479   6.373   2.734
  813DIO     C745482   0.905   6.344   2.678
  813DIO     C845483   0.828   6.458   2.625
  813DIO     C945484   0.684   6.452   2.611
  813DIO    C1045485   0.611   6.336   2.659
  813DIO    C1145486   0.683   6.219   2.705
  813DIO    C1245487   0.828   6.224   2.717
  813DIO     F445488   0.892   6.116   2.765
  813DIO     O145489   0.479   6.326   2.621
  813DIO    C1345490   0.384   6.269   2.706
  813DIO     O245491   0.383   6.246   2.829
  813DIO    C1445492   0.255   6.247   2.640
  813DIO    C1545493   0.189   6.354   2.561
  813DIO     F545494   0.251   6.471   2.540
  813DIO    C1645495   0.058   6.336   2.500
  813DIO    C1745496  -0.018   6.213   2.522
  813DIO    C1845497   0.051   6.101   2.584
  813DIO    C1945498   0.183   6.118   2.643
  813DIO     F645499   0.245   6.007   2.687
  813DIO    C2045500  -0.158   6.198   2.469
  813DIO     O345501  -0.228   6.322   2.454
  813DIO    C2145502  -0.272   6.376   2.578
  813DIO    C2245503  -0.361   6.277   2.652
  813DIO    C2345504  -0.280   6.149   2.668
  813DIO     O445505  -0.236   6.101   2.541
  813DIO    C2445506  -0.494   6.248   2.579
  813DIO    C2545507  -0.584   6.369   2.554
  813DIO    C2645508  -0.623   6.444   2.680
  813DIO     H145509   1.098   6.158   2.590
  813DIO     H245510   1.057   6.539   2.811
  813DIO     H345511   0.880   6.547   2.590
  813DIO     H445512   0.628   6.532   2.564
  813DIO     H545513   0.629   6.131   2.736
  813DIO     H645514   0.020   6.415   2.437
  813DIO     H745515   0.008   6.002   2.583
  813DIO     H845516  -0.149   6.158   2.367
  813DIO     H945517  -0.185   6.404   2.639
  813DIO    H1045518  -0.325   6.470   2.557
  813DIO    H1145519  -0.383   6.317   2.752
  813DIO    H1245520  -0.341   6.070   2.713
  813DIO    H1345521  -0.194   6.164   2.734
  813DIO    H1445522  -0.474   6.200   2.482
  813DIO    H1545523  -0.550   6.175   2.638
  813DIO    H1645524  -0.537   6.438   2.483
  813DIO    H1745525  -0.676   6.334   2.505
  813DIO    H1845526  -0.667   6.377   2.755
  813DIO    H1945527  -0.536   6.494   2.725
  813DIO    H2045528  -0.696   6.522   2.657
  814DIO     F145529   6.996   8.820  -0.326
  814DIO     C145530   6.918   8.725  -0.272
  814DIO     C245531   6.774   8.742  -0.272
  814DIO     C345532   6.685   8.640  -0.212
  814DIO     C445533   6.751   8.520  -0.155
  814DIO     C545534   6.895   8.505  -0.156
  814DIO     F245535   6.950   8.392  -0.107
  814DIO     C645536   6.979   8.607  -0.215
  814DIO     F345537   7.112   8.592  -0.215
  814DIO     C745538   6.539   8.655  -0.209
  814DIO     C845539   6.462   8.638  -0.084
  814DIO     C945540   6.317   8.653  -0.082
  814DIO    C1045541   6.244   8.676  -0.205
  814DIO    C1145542   6.317   8.701  -0.329
  814DIO    C1245543   6.461   8.688  -0.330
  814DIO     F445544   6.526   8.707  -0.447
  814DIO     O145545   6.112   8.713  -0.193
  814DIO    C1345546   6.018   8.673  -0.287
  814DIO     O245547   6.017   8.582  -0.374
  814DIO    C1445548   5.889   8.741  -0.269
  814DIO    C1545549   5.822   8.748  -0.137
  814DIO     F545550   5.885   8.702  -0.027
  814DIO    C1645551   5.691   8.808  -0.118
  814DIO    C1745552   5.616   8.858  -0.233
  814DIO    C1845553   5.684   8.867  -0.361
  814DIO    C1945554   5.816   8.808  -0.379
  814DIO     F645555   5.879   8.833  -0.496
  814DIO    C2045556   5.475   8.910  -0.217
  814DIO     O345557   5.405   8.855  -0.105
  814DIO    C2145558   5.362   8.722  -0.127
  814DIO    C2245559   5.273   8.713  -0.251
  814DIO    C2345560   5.353   8.771  -0.367
  814DIO     O445561   5.398   8.903  -0.337
  814DIO    C2445562   5.140   8.791  -0.235
  814DIO    C2545563   5.049   8.746  -0.120
  814DIO    C2645564   5.011   8.599  -0.126
  814DIO     H145565   6.731   8.831  -0.317
  814DIO     H245566   6.690   8.437  -0.118
  814DIO     H345567   6.513   8.619   0.009
  814DIO     H445568   6.262   8.649   0.011
  814DIO     H545569   6.262   8.723  -0.419
  814DIO     H645570   5.653   8.819  -0.018
  814DIO     H745571   5.642   8.922  -0.444
  814DIO     H845572   5.485   9.017  -0.195
  814DIO     H945573   5.448   8.656  -0.137
  814DIO    H1045574   5.309   8.688  -0.037
  814DIO    H1145575   5.250   8.608  -0.272
  814DIO    H1245576   5.292   8.776  -0.458
  814DIO    H1345577   5.440   8.707  -0.390
  814DIO    H1445578   5.160   8.898  -0.223
  814DIO    H1545579   5.083   8.781  -0.329
  814DIO    H1645580   5.097   8.767  -0.024
  814DIO    H1745581   4.957   8.806  -0.123
  814DIO    H1845582   4.967   8.573  -0.223
  814DIO    H1945583   5.097   8.534  -0.109
  814DIO    H2045584   4.937   8.576  -0.048
  815DIO     F145585   7.440   8.642   6.183
  815DIO     C145586   7.363   8.712   6.098
  815DIO     C245587   7.219   8.696   6.104
  815DIO     C345588   7.130   8.770   6.011
  815DIO     C445589   7.195   8.861   5.915
  815DIO     C545590   7.340   8.876   5.911
  815DIO     F245591   7.395   8.963   5.825
  815DIO     C645592   7.423   8.802   6.003
  815DIO     F345593   7.557   8.815   5.997
  815DIO     C745594   6.983   8.754   6.015
  815DIO     C845595   6.906   8.726   5.892
  815DIO     C945596   6.762   8.711   5.895
  815DIO    C1045597   6.689   8.734   6.018
  815DIO    C1145598   6.762   8.754   6.143
  815DIO    C1245599   6.906   8.767   6.140
  815DIO     F445600   6.971   8.791   6.255
  815DIO     O145601   6.557   8.695   6.020
  815DIO    C1345602   6.462   8.765   6.093
  815DIO     O245603   6.461   8.881   6.142
  815DIO    C1445604   6.333   8.696   6.101
  815DIO    C1545605   6.267   8.641   5.980
  815DIO     F545606   6.330   8.646   5.861
  815DIO    C1645607   6.136   8.579   5.985
  815DIO    C1745608   6.060   8.574   6.109
  815DIO    C1845609   6.129   8.611   6.232
  815DIO    C1945610   6.261   8.672   6.228
  815DIO     F645611   6.323   8.691   6.346
  815DIO    C2045612   5.920   8.519   6.113
  815DIO     O345613   5.850   8.530   5.988
  815DIO    C2145614   5.806   8.663   5.962
  815DIO    C2245615   5.717   8.715   6.074
  815DIO    C2345616   5.798   8.703   6.203
  815DIO     O445617   5.842   8.569   6.223
  815DIO    C2445618   5.585   8.637   6.087
  815DIO    C2545619   5.494   8.638   5.964
  815DIO    C2645620   5.455   8.777   5.917
  815DIO     H145621   7.176   8.629   6.177
  815DIO     H245622   7.135   8.925   5.851
  815DIO     H345623   6.958   8.710   5.798
  815DIO     H445624   6.707   8.682   5.806
  815DIO     H545625   6.707   8.766   6.235
  815DIO     H645626   6.098   8.533   5.894
  815DIO     H745627   6.086   8.589   6.329
  815DIO     H845628   5.929   8.411   6.131
  815DIO     H945629   5.893   8.728   5.948
  815DIO    H1045630   5.753   8.662   5.866
  815DIO    H1145631   5.695   8.821   6.057
  815DIO    H1245632   5.737   8.730   6.290
  815DIO    H1345633   5.884   8.771   6.202
  815DIO    H1445634   5.604   8.532   6.114
  815DIO    H1545635   5.528   8.679   6.171
  815DIO    H1645636   5.541   8.583   5.882
  815DIO    H1745637   5.402   8.583   5.988
  815DIO    H1845638   5.412   8.836   5.998
  815DIO    H1945639   5.542   8.832   5.878
  815DIO    H2045640   5.382   8.771   5.836
  816DIO     F145641   5.099   1.315   2.358
  816DIO     C145642   5.021   1.337   2.250
  816DIO     C245643   4.877   1.326   2.263
  816DIO     C345644   4.789   1.348   2.146
  816DIO     C445645   4.854   1.383   2.018
  816DIO     C545646   4.998   1.394   2.008
  816DIO     F245647   5.054   1.431   1.891
  816DIO     C645648   5.082   1.372   2.124
  816DIO     F345649   5.216   1.381   2.113
  816DIO     C745650   4.642   1.335   2.157
  816DIO     C845651   4.565   1.252   2.061
  816DIO     C945652   4.420   1.241   2.071
  816DIO    C1045653   4.348   1.319   2.169
  816DIO    C1145654   4.420   1.396   2.269
  816DIO    C1245655   4.564   1.405   2.261
  816DIO     F445656   4.629   1.481   2.352
  816DIO     O145657   4.216   1.285   2.189
  816DIO    C1345658   4.121   1.382   2.221
  816DIO     O245659   4.120   1.508   2.210
  816DIO    C1445660   3.992   1.325   2.260
  816DIO    C1545661   3.926   1.220   2.179
  816DIO     F545662   3.988   1.168   2.072
  816DIO    C1645663   3.795   1.166   2.212
  816DIO    C1745664   3.719   1.220   2.325
  816DIO    C1845665   3.788   1.311   2.416
  816DIO    C1945666   3.919   1.364   2.383
  816DIO     F645667   3.982   1.436   2.479
  816DIO    C2045668   3.578   1.174   2.354
  816DIO     O345669   3.509   1.125   2.239
  816DIO    C2145670   3.465   1.230   2.153
  816DIO    C2245671   3.376   1.329   2.227
  816DIO    C2345672   3.457   1.379   2.347
  816DIO     O445673   3.501   1.269   2.427
  816DIO    C2445674   3.243   1.266   2.276
  816DIO    C2545675   3.153   1.209   2.166
  816DIO    C2645676   3.114   1.310   2.059
  816DIO     H145677   4.835   1.301   2.359
  816DIO     H245678   4.793   1.410   1.932
  816DIO     H345679   4.617   1.195   1.986
  816DIO     H445680   4.365   1.174   2.007
  816DIO     H545681   4.366   1.449   2.346
  816DIO     H645682   3.757   1.083   2.154
  816DIO     H745683   3.745   1.337   2.512
  816DIO     H845684   3.588   1.087   2.420
  816DIO     H945685   3.552   1.281   2.110
  816DIO    H1045686   3.412   1.184   2.069
  816DIO    H1145687   3.354   1.414   2.162
  816DIO    H1245688   3.396   1.444   2.411
  816DIO    H1345689   3.543   1.438   2.314
  816DIO    H1445690   3.263   1.186   2.348
  816DIO    H1545691   3.187   1.343   2.330
  816DIO    H1645692   3.200   1.122   2.119
  816DIO    H1745693   3.061   1.172   2.214
  816DIO    H1845694   3.070   1.400   2.104
  816DIO    H1945695   3.201   1.340   1.999
  816DIO    H2045696   3.041   1.266   1.991
  817DIO     F145697   3.151  -0.375   7.630
  817DIO     C145698   3.073  -0.340   7.526
  817DIO     C245699   2.929  -0.353   7.537
  817DIO     C345700   2.840  -0.318   7.424
  817DIO     C445701   2.906  -0.267   7.301
  817DIO     C545702   3.050  -0.256   7.293
  817DIO     F245703   3.106  -0.205   7.181
  817DIO     C645704   3.134  -0.291   7.405
  817DIO     F345705   3.268  -0.281   7.395
  817DIO     C745706   2.694  -0.331   7.433
  817DIO     C845707   2.617  -0.402   7.329
  817DIO     C945708   2.472  -0.415   7.337
  817DIO    C1045709   2.400  -0.349   7.444
  817DIO    C1145710   2.472  -0.285   7.552
  817DIO    C1245711   2.616  -0.274   7.545
  817DIO     F445712   2.681  -0.210   7.644
  817DIO     O145713   2.267  -0.385   7.459
  817DIO    C1345714   2.173  -0.292   7.502
  817DIO     O245715   2.172  -0.166   7.506
  817DIO    C1445716   2.044  -0.354   7.534
  817DIO    C1545717   1.978  -0.449   7.442
  817DIO     F545718   2.040  -0.488   7.329
  817DIO    C1645719   1.847  -0.506   7.469
  817DIO    C1745720   1.771  -0.465   7.587
  817DIO    C1845721   1.840  -0.386   7.688
  817DIO    C1945722   1.971  -0.330   7.661
  817DIO     F645723   2.034  -0.270   7.765
  817DIO    C2045724   1.630  -0.515   7.610
  817DIO     O345725   1.561  -0.550   7.490
  817DIO    C2145726   1.517  -0.436   7.417
  817DIO    C2245727   1.428  -0.346   7.503
  817DIO    C2345728   1.509  -0.311   7.627
  817DIO     O445729   1.553  -0.429   7.694
  817DIO    C2445730   1.295  -0.414   7.543
  817DIO    C2545731   1.205  -0.458   7.428
  817DIO    C2645732   1.166  -0.345   7.333
  817DIO     H145733   2.887  -0.389   7.630
  817DIO     H245734   2.845  -0.231   7.219
  817DIO     H345735   2.668  -0.451   7.247
  817DIO     H445736   2.417  -0.474   7.265
  817DIO     H545737   2.418  -0.240   7.634
  817DIO     H645738   1.809  -0.581   7.401
  817DIO     H745739   1.797  -0.371   7.786
  817DIO     H845740   1.640  -0.609   7.666
  817DIO     H945741   1.604  -0.380   7.380
  817DIO    H1045742   1.464  -0.471   7.328
  817DIO    H1145743   1.405  -0.254   7.448
  817DIO    H1245744   1.448  -0.254   7.698
  817DIO    H1345745   1.595  -0.248   7.602
  817DIO    H1445746   1.315  -0.502   7.606
  817DIO    H1545747   1.239  -0.344   7.606
  817DIO    H1645748   1.252  -0.539   7.371
  817DIO    H1745749   1.113  -0.501   7.471
  817DIO    H1845750   1.122  -0.261   7.388
  817DIO    H1945751   1.253  -0.309   7.277
  817DIO    H2045752   1.092  -0.381   7.261
  818DIO     F145753   5.525   8.240   6.927
  818DIO     C145754   5.447   8.335   6.872
  818DIO     C245755   5.303   8.318   6.872
  818DIO     C345756   5.214   8.419   6.810
  818DIO     C445757   5.280   8.538   6.751
  818DIO     C545758   5.424   8.552   6.752
  818DIO     F245759   5.480   8.664   6.701
  818DIO     C645760   5.508   8.452   6.813
  818DIO     F345761   5.642   8.466   6.813
  818DIO     C745762   5.068   8.403   6.808
  818DIO     C845763   4.991   8.418   6.682
  818DIO     C945764   4.846   8.403   6.680
  818DIO    C1045765   4.774   8.382   6.804
  818DIO    C1145766   4.846   8.359   6.928
  818DIO    C1245767   4.990   8.372   6.929
  818DIO     F445768   5.055   8.355   7.046
  818DIO     O145769   4.641   8.345   6.792
  818DIO    C1345770   4.547   8.386   6.886
  818DIO     O245771   4.546   8.478   6.971
  818DIO    C1445772   4.418   8.319   6.869
  818DIO    C1545773   4.352   8.309   6.737
  818DIO     F545774   4.414   8.354   6.626
  818DIO    C1645775   4.221   8.248   6.719
  818DIO    C1745776   4.145   8.201   6.835
  818DIO    C1845777   4.214   8.194   6.963
  818DIO    C1945778   4.345   8.253   6.980
  818DIO     F645779   4.408   8.230   7.098
  818DIO    C2045780   4.004   8.148   6.820
  818DIO     O345781   3.935   8.201   6.706
  818DIO    C2145782   3.891   8.335   6.727
  818DIO    C2245783   3.802   8.346   6.850
  818DIO    C2345784   3.883   8.290   6.967
  818DIO     O445785   3.927   8.157   6.940
  818DIO    C2445786   3.669   8.268   6.836
  818DIO    C2545787   3.579   8.311   6.720
  818DIO    C2645788   3.540   8.458   6.724
  818DIO     H145789   5.261   8.229   6.918
  818DIO     H245790   5.219   8.620   6.713
  818DIO     H345791   5.042   8.436   6.589
  818DIO     H445792   4.791   8.406   6.587
  818DIO     H545793   4.792   8.338   7.019
  818DIO     H645794   4.183   8.236   6.619
  818DIO     H745795   4.171   8.140   7.046
  818DIO     H845796   4.014   8.041   6.799
  818DIO     H945797   3.978   8.402   6.736
  818DIO    H1045798   3.838   8.367   6.636
  818DIO    H1145799   3.779   8.451   6.870
  818DIO    H1245800   3.822   8.286   7.058
  818DIO    H1345801   3.969   8.354   6.989
  818DIO    H1445802   3.689   8.161   6.825
  818DIO    H1545803   3.613   8.279   6.929
  818DIO    H1645804   3.626   8.288   6.624
  818DIO    H1745805   3.487   8.251   6.724
  818DIO    H1845806   3.496   8.485   6.820
  818DIO    H1945807   3.627   8.523   6.706
  818DIO    H2045808   3.466   8.480   6.646
  819DIO     F145809  10.718   8.571   8.797
  819DIO     C145810  10.640   8.514   8.891
  819DIO     C245811  10.496   8.529   8.883
  819DIO     C345812  10.407   8.469   8.985
  819DIO     C445813  10.473   8.392   9.093
  819DIO     C545814  10.617   8.378   9.099
  819DIO     F245815  10.672   8.304   9.197
  819DIO     C645816  10.701   8.438   8.998
  819DIO     F345817  10.835   8.426   9.005
  819DIO     C745818  10.261   8.484   8.979
  819DIO     C845819  10.184   8.530   9.097
  819DIO     C945820  10.039   8.544   9.092
  819DIO    C1045821   9.966   8.504   8.973
  819DIO    C1145822  10.039   8.465   8.853
  819DIO    C1245823  10.183   8.454   8.858
  819DIO     F445824  10.248   8.413   8.747
  819DIO     O145825   9.834   8.542   8.966
  819DIO    C1345826   9.740   8.462   8.903
  819DIO     O245827   9.739   8.340   8.871
  819DIO    C1445828   9.611   8.529   8.886
  819DIO    C1545829   9.544   8.600   8.997
  819DIO     F545830   9.607   8.613   9.116
  819DIO    C1645831   9.414   8.662   8.984
  819DIO    C1745832   9.338   8.649   8.860
  819DIO    C1845833   9.407   8.594   8.744
  819DIO    C1945834   9.538   8.534   8.757
  819DIO     F645835   9.601   8.499   8.642
  819DIO    C2045836   9.197   8.703   8.848
  819DIO     O345837   9.127   8.709   8.973
  819DIO    C2145838   9.084   8.582   9.019
  819DIO    C2245839   8.995   8.514   8.915
  819DIO    C2345840   9.076   8.508   8.785
  819DIO     O445841   9.120   8.638   8.747
  819DIO    C2445842   8.862   8.589   8.891
  819DIO    C2545843   8.771   8.606   9.013
  819DIO    C2645844   8.733   8.475   9.080
  819DIO     H145845  10.453   8.584   8.800
  819DIO     H245846  10.412   8.338   9.165
  819DIO     H345847  10.235   8.558   9.188
  819DIO     H445848   9.984   8.585   9.175
  819DIO     H545849   9.985   8.441   8.763
  819DIO     H645850   9.375   8.720   9.067
  819DIO     H745851   9.364   8.602   8.645
  819DIO     H845852   9.207   8.807   8.815
  819DIO     H945853   9.170   8.519   9.042
  819DIO    H1045854   9.031   8.596   9.114
  819DIO    H1145855   8.972   8.412   8.947
  819DIO    H1245856   9.014   8.468   8.704
  819DIO    H1345857   9.162   8.441   8.796
  819DIO    H1445858   8.882   8.689   8.850
  819DIO    H1545859   8.806   8.535   8.814
  819DIO    H1645860   8.819   8.672   9.087
  819DIO    H1745861   8.680   8.657   8.981
  819DIO    H1845862   8.689   8.405   9.007
  819DIO    H1945863   8.819   8.427   9.126
  819DIO    H2045864   8.659   8.493   9.158
  820DIO     F145865   8.048   5.944  10.761
  820DIO     C145866   7.970   5.963  10.652
  820DIO     C245867   7.826   5.952  10.665
  820DIO     C345868   7.737   5.969  10.548
  820DIO     C445869   7.803   6.000  10.419
  820DIO     C545870   7.947   6.011  10.408
  820DIO     F245871   8.002   6.043  10.290
  820DIO     C645872   8.031   5.993  10.525
  820DIO     F345873   8.165   6.001  10.513
  820DIO     C745874   7.591   5.957  10.559
  820DIO     C845875   7.514   5.871  10.466
  820DIO     C945876   7.369   5.860  10.477
  820DIO    C1045877   7.296   5.941  10.572
  820DIO    C1145878   7.369   6.022  10.669
  820DIO    C1245879   7.513   6.031  10.661
  820DIO     F445880   7.578   6.110  10.748
  820DIO     O145881   7.164   5.908  10.593
  820DIO    C1345882   7.070   6.006  10.621
  820DIO     O245883   7.069   6.131  10.606
  820DIO    C1445884   6.941   5.950  10.662
  820DIO    C1545885   6.874   5.843  10.585
  820DIO     F545886   6.937   5.787  10.480
  820DIO    C1645887   6.744   5.790  10.621
  820DIO    C1745888   6.668   5.848  10.731
  820DIO    C1845889   6.737   5.942  10.819
  820DIO    C1945890   6.868   5.993  10.784
  820DIO     F645891   6.931   6.069  10.877
  820DIO    C2045892   6.527   5.803  10.762
  820DIO     O345893   6.457   5.750  10.648
  820DIO    C2145894   6.414   5.852  10.558
  820DIO    C2245895   6.325   5.953  10.630
  820DIO    C2345896   6.406   6.007  10.748
  820DIO     O445897   6.450   5.901  10.832
  820DIO    C2445898   6.192   5.892  10.680
  820DIO    C2545899   6.101   5.831  10.573
  820DIO    C2645900   6.063   5.928  10.462
  820DIO     H145901   7.783   5.930  10.762
  820DIO     H245902   7.742   6.024  10.332
  820DIO     H345903   7.565   5.811  10.393
  820DIO     H445904   7.314   5.790  10.415
  820DIO     H545905   7.315   6.078  10.744
  820DIO     H645906   6.705   5.705  10.565
  820DIO     H745907   6.694   5.972  10.914
  820DIO     H845908   6.537   5.719  10.831
  820DIO     H945909   6.500   5.901  10.514
  820DIO    H1045910   6.361   5.803  10.476
  820DIO    H1145911   6.302   6.036  10.562
  820DIO    H1245912   6.344   6.074  10.809
  820DIO    H1345913   6.492   6.065  10.713
  820DIO    H1445914   6.212   5.815  10.756
  820DIO    H1545915   6.136   5.971  10.732
  820DIO    H1645916   6.149   5.743  10.529
  820DIO    H1745917   6.010   5.796  10.622
  820DIO    H1845918   6.019   6.020  10.503
  820DIO    H1945919   6.149   5.956  10.401
  820DIO    H2045920   5.989   5.882  10.396
  821DIO     F145921   9.599   3.631   6.639
  821DIO     C145922   9.522   3.711   6.715
  821DIO     C245923   9.378   3.706   6.698
  821DIO     C345924   9.289   3.794   6.778
  821DIO     C445925   9.354   3.885   6.875
  821DIO     C545926   9.499   3.887   6.889
  821DIO     F245927   9.554   3.968   6.982
  821DIO     C645928   9.582   3.801   6.810
  821DIO     F345929   9.716   3.805   6.824
  821DIO     C745930   9.142   3.792   6.762
  821DIO     C845931   9.065   3.916   6.741
  821DIO     C945932   8.921   3.914   6.726
  821DIO    C1045933   8.848   3.789   6.741
  821DIO    C1145934   8.921   3.664   6.754
  821DIO    C1245935   9.065   3.666   6.766
  821DIO     F445936   9.130   3.549   6.784
  821DIO     O145937   8.716   3.790   6.702
  821DIO    C1345938   8.621   3.712   6.768
  821DIO     O245939   8.620   3.656   6.881
  821DIO    C1445940   8.492   3.709   6.698
  821DIO    C1545941   8.426   3.833   6.651
  821DIO     F545942   8.489   3.952   6.663
  821DIO    C1645943   8.295   3.833   6.588
  821DIO    C1745944   8.219   3.708   6.576
  821DIO    C1845945   8.288   3.583   6.606
  821DIO    C1945946   8.420   3.584   6.667
  821DIO     F645947   8.482   3.465   6.679
  821DIO    C2045948   8.079   3.708   6.521
  821DIO     O345949   8.009   3.832   6.540
  821DIO    C2145950   7.965   3.850   6.674
  821DIO    C2245951   7.876   3.735   6.719
  821DIO    C2345952   7.957   3.607   6.699
  821DIO     O445953   8.001   3.595   6.564
  821DIO    C2445954   7.744   3.726   6.640
  821DIO    C2545955   7.653   3.850   6.649
  821DIO    C2645956   7.614   3.888   6.791
  821DIO     H145957   9.335   3.637   6.627
  821DIO     H245958   9.294   3.944   6.943
  821DIO     H345959   9.117   4.011   6.731
  821DIO     H445960   8.866   4.004   6.702
  821DIO     H545961   8.866   3.571   6.760
  821DIO     H645962   8.257   3.926   6.548
  821DIO     H745963   8.245   3.488   6.578
  821DIO     H845964   8.088   3.697   6.412
  821DIO     H945965   8.052   3.860   6.740
  821DIO    H1045966   7.912   3.946   6.679
  821DIO    H1145967   7.854   3.746   6.826
  821DIO    H1245968   7.896   3.519   6.721
  821DIO    H1345969   8.043   3.604   6.767
  821DIO    H1445970   7.763   3.706   6.534
  821DIO    H1545971   7.687   3.640   6.677
  821DIO    H1645972   7.700   3.935   6.599
  821DIO    H1745973   7.561   3.829   6.592
  821DIO    H1845974   7.571   3.803   6.844
  821DIO    H1945975   7.701   3.924   6.848
  821DIO    H2045976   7.541   3.969   6.789
  822DIO     F145977   6.585   2.332   3.496
  822DIO     C145978   6.507   2.278   3.591
  822DIO     C245979   6.363   2.293   3.583
  822DIO     C345980   6.274   2.236   3.687
  822DIO     C445981   6.340   2.163   3.798
  822DIO     C545982   6.484   2.150   3.804
  822DIO     F245983   6.540   2.079   3.904
  822DIO     C645984   6.568   2.206   3.701
  822DIO     F345985   6.702   2.194   3.708
  822DIO     C745986   6.128   2.251   3.681
  822DIO     C845987   6.051   2.301   3.797
  822DIO     C945988   5.906   2.315   3.791
  822DIO    C1045989   5.834   2.271   3.674
  822DIO    C1145990   5.906   2.229   3.555
  822DIO    C1245991   6.050   2.217   3.560
  822DIO     F445992   6.115   2.173   3.450
  822DIO     O145993   5.701   2.309   3.666
  822DIO    C1345994   5.607   2.226   3.605
  822DIO     O245995   5.606   2.104   3.577
  822DIO    C1445996   5.478   2.293   3.586
  822DIO    C1545997   5.411   2.368   3.695
  822DIO     F545998   5.474   2.385   3.813
  822DIO    C1645999   5.281   2.429   3.680
  822DIO    C1746000   5.205   2.412   3.556
  822DIO    C1846001   5.274   2.354   3.442
  822DIO    C1946002   5.405   2.294   3.457
  822DIO     F646003   5.468   2.255   3.344
  822DIO    C2046004   5.064   2.466   3.543
  822DIO     O346005   4.994   2.476   3.667
  822DIO    C2146006   4.951   2.350   3.717
  822DIO    C2246007   4.862   2.279   3.615
  822DIO    C2346008   4.943   2.269   3.486
  822DIO     O446009   4.987   2.397   3.443
  822DIO    C2446010   4.729   2.354   3.589
  822DIO    C2546011   4.638   2.374   3.711
  822DIO    C2646012   4.600   2.245   3.781
  822DIO     H146013   6.321   2.346   3.499
  822DIO     H246014   6.279   2.111   3.871
  822DIO     H346015   6.102   2.332   3.887
  822DIO     H446016   5.851   2.359   3.873
  822DIO     H546017   5.852   2.201   3.466
  822DIO     H646018   5.243   2.490   3.761
  822DIO     H746019   5.231   2.359   3.342
  822DIO     H846020   5.074   2.569   3.506
  822DIO     H946021   5.037   2.288   3.742
  822DIO    H1046022   4.898   2.368   3.811
  822DIO    H1146023   4.839   2.178   3.651
  822DIO    H1246024   4.882   2.226   3.406
  822DIO    H1346025   5.029   2.202   3.499
  822DIO    H1446026   4.749   2.452   3.544
  822DIO    H1546027   4.673   2.297   3.513
  822DIO    H1646028   4.686   2.443   3.782
  822DIO    H1746029   4.547   2.424   3.677
  822DIO    H1846030   4.556   2.174   3.711
  822DIO    H1946031   4.687   2.199   3.829
  822DIO    H2046032   4.526   2.266   3.860
  823DIO     F146033   1.150   0.912   5.356
  823DIO     C146034   1.072   0.826   5.425
  823DIO     C246035   0.928   0.842   5.422
  823DIO     C346036   0.839   0.751   5.498
  823DIO     C446037   0.905   0.642   5.573
  823DIO     C546038   1.049   0.627   5.574
  823DIO     F246039   1.104   0.524   5.641
  823DIO     C646040   1.133   0.718   5.500
  823DIO     F346041   1.266   0.704   5.502
  823DIO     C746042   0.693   0.767   5.498
  823DIO     C846043   0.616   0.770   5.624
  823DIO     C946044   0.471   0.785   5.624
  823DIO    C1046045   0.398   0.788   5.498
  823DIO    C1146046   0.471   0.793   5.373
  823DIO    C1246047   0.615   0.781   5.373
  823DIO     F446048   0.680   0.780   5.255
  823DIO     O146049   0.266   0.827   5.505
  823DIO    C1346050   0.172   0.772   5.418
  823DIO     O246051   0.171   0.669   5.347
  823DIO    C1446052   0.042   0.842   5.425
  823DIO    C1546053  -0.024   0.871   5.554
  823DIO     F546054   0.039   0.842   5.670
  823DIO    C1646055  -0.155   0.933   5.563
  823DIO    C1746056  -0.230   0.963   5.442
  823DIO    C1846057  -0.162   0.952   5.314
  823DIO    C1946058  -0.030   0.891   5.306
  823DIO     F646059   0.032   0.897   5.186
  823DIO    C2046060  -0.371   1.018   5.450
  823DIO     O346061  -0.441   0.981   5.569
  823DIO    C2146062  -0.485   0.846   5.568
  823DIO    C2246063  -0.573   0.818   5.448
  823DIO    C2346064  -0.493   0.856   5.324
  823DIO     O446065  -0.448   0.991   5.332
  823DIO    C2446066  -0.706   0.897   5.451
  823DIO    C2546067  -0.797   0.871   5.571
  823DIO    C2646068  -0.835   0.724   5.589
  823DIO     H146069   0.885   0.923   5.364
  823DIO     H246070   0.844   0.566   5.623
  823DIO     H346071   0.667   0.766   5.719
  823DIO     H446072   0.416   0.795   5.716
  823DIO     H546073   0.416   0.801   5.279
  823DIO     H646074  -0.193   0.959   5.661
  823DIO     H746075  -0.205   0.993   5.224
  823DIO     H846076  -0.361   1.127   5.454
  823DIO     H946077  -0.398   0.779   5.569
  823DIO    H1046078  -0.537   0.827   5.662
  823DIO    H1146079  -0.596   0.711   5.443
  823DIO    H1246080  -0.554   0.847   5.233
  823DIO    H1346081  -0.407   0.790   5.311
  823DIO    H1446082  -0.686   1.005   5.446
  823DIO    H1546083  -0.763   0.873   5.360
  823DIO    H1646084  -0.750   0.907   5.663
  823DIO    H1746085  -0.889   0.929   5.559
  823DIO    H1846086  -0.879   0.684   5.497
  823DIO    H1946087  -0.749   0.663   5.616
  823DIO    H2046088  -0.909   0.715   5.669
  824DIO     F146089  10.570   1.240   0.185
  824DIO     C146090  10.492   1.262   0.077
  824DIO     C246091  10.348   1.251   0.090
  824DIO     C346092  10.259   1.271  -0.027
  824DIO     C446093  10.325   1.306  -0.155
  824DIO     C546094  10.469   1.317  -0.165
  824DIO     F246095  10.525   1.353  -0.283
  824DIO     C646096  10.553   1.295  -0.050
  824DIO     F346097  10.687   1.305  -0.060
  824DIO     C746098  10.113   1.259  -0.016
  824DIO     C846099  10.036   1.176  -0.111
  824DIO     C946100   9.891   1.164  -0.101
  824DIO    C1046101   9.819   1.243  -0.003
  824DIO    C1146102   9.891   1.320   0.096
  824DIO    C1246103  10.035   1.330   0.088
  824DIO     F446104  10.100   1.406   0.178
  824DIO     O146105   9.686   1.209   0.016
  824DIO    C1346106   9.592   1.306   0.048
  824DIO     O246107   9.591   1.432   0.036
  824DIO    C1446108   9.463   1.249   0.087
  824DIO    C1546109   9.397   1.144   0.007
  824DIO     F546110   9.459   1.091  -0.100
  824DIO    C1646111   9.266   1.091   0.041
  824DIO    C1746112   9.190   1.145   0.153
  824DIO    C1846113   9.259   1.237   0.243
  824DIO    C1946114   9.390   1.289   0.210
  824DIO     F646115   9.453   1.362   0.305
  824DIO    C2046116   9.049   1.099   0.182
  824DIO     O346117   8.980   1.050   0.067
  824DIO    C2146118   8.936   1.154  -0.020
  824DIO    C2246119   8.847   1.253   0.055
  824DIO    C2346120   8.928   1.304   0.174
  824DIO     O446121   8.972   1.195   0.255
  824DIO    C2446122   8.714   1.191   0.103
  824DIO    C2546123   8.624   1.133  -0.006
  824DIO    C2646124   8.585   1.233  -0.114
  824DIO     H146125  10.306   1.226   0.186
  824DIO     H246126  10.264   1.332  -0.241
  824DIO     H346127  10.087   1.118  -0.186
  824DIO     H446128   9.836   1.096  -0.165
  824DIO     H546129   9.837   1.374   0.172
  824DIO     H646130   9.228   1.007  -0.017
  824DIO     H746131   9.216   1.263   0.339
  824DIO     H846132   9.059   1.013   0.249
  824DIO     H946133   9.023   1.205  -0.063
  824DIO    H1046134   8.883   1.107  -0.103
  824DIO    H1146135   8.824   1.338  -0.011
  824DIO    H1246136   8.867   1.369   0.237
  824DIO    H1346137   9.014   1.363   0.141
  824DIO    H1446138   8.734   1.111   0.176
  824DIO    H1546139   8.658   1.268   0.157
  824DIO    H1646140   8.671   1.046  -0.052
  824DIO    H1746141   8.532   1.096   0.042
  824DIO    H1846142   8.541   1.323  -0.070
  824DIO    H1946143   8.672   1.262  -0.174
  824DIO    H2046144   8.511   1.189  -0.181
  825DIO     F146145   4.311   3.962   8.999
  825DIO     C146146   4.234   4.050   8.932
  825DIO     C246147   4.090   4.033   8.934
  825DIO     C346148   4.001   4.126   8.861
  825DIO     C446149   4.066   4.237   8.788
  825DIO     C546150   4.211   4.251   8.787
  825DIO     F246151   4.266   4.356   8.723
  825DIO     C646152   4.294   4.159   8.859
  825DIO     F346153   4.428   4.173   8.857
  825DIO     C746154   3.854   4.110   8.860
  825DIO     C846155   3.777   4.110   8.734
  825DIO     C946156   3.633   4.095   8.734
  825DIO    C1046157   3.560   4.089   8.859
  825DIO    C1146158   3.633   4.081   8.985
  825DIO    C1246159   3.777   4.093   8.985
  825DIO     F446160   3.842   4.091   9.103
  825DIO     O146161   3.428   4.051   8.852
  825DIO    C1346162   3.333   4.103   8.940
  825DIO     O246163   3.332   4.205   9.014
  825DIO    C1446164   3.204   4.034   8.931
  825DIO    C1546165   3.138   4.008   8.801
  825DIO     F546166   3.201   4.039   8.686
  825DIO    C1646167   3.007   3.946   8.791
  825DIO    C1746168   2.931   3.912   8.911
  825DIO    C1846169   3.000   3.921   9.040
  825DIO    C1946170   3.132   3.982   9.049
  825DIO     F646171   3.194   3.973   9.169
  825DIO    C2046172   2.791   3.858   8.903
  825DIO     O346173   2.721   3.897   8.784
  825DIO    C2146174   2.677   4.033   8.788
  825DIO    C2246175   2.588   4.058   8.909
  825DIO    C2346176   2.669   4.017   9.032
  825DIO     O446177   2.713   3.882   9.021
  825DIO    C2446178   2.456   3.979   8.905
  825DIO    C2546179   2.365   4.008   8.785
  825DIO    C2646180   2.326   4.154   8.770
  825DIO     H146181   4.047   3.951   8.991
  825DIO     H246182   4.006   4.313   8.740
  825DIO     H346183   3.829   4.116   8.639
  825DIO     H446184   3.578   4.086   8.641
  825DIO     H546185   3.578   4.071   9.078
  825DIO     H646186   2.969   3.921   8.693
  825DIO     H746187   2.957   3.878   9.129
  825DIO     H846188   2.800   3.749   8.896
  825DIO     H946189   2.764   4.100   8.789
  825DIO    H1046190   2.624   4.054   8.695
  825DIO    H1146191   2.566   4.165   8.916
  825DIO    H1246192   2.608   4.024   9.123
  825DIO    H1346193   2.755   4.083   9.047
  825DIO    H1446194   2.475   3.871   8.907
  825DIO    H1546195   2.399   4.001   8.996
  825DIO    H1646196   2.412   3.973   8.692
  825DIO    H1746197   2.273   3.949   8.796
  825DIO    H1846198   2.283   4.193   8.863
  825DIO    H1946199   2.413   4.216   8.745
  825DIO    H2046200   2.253   4.166   8.690
  826DIO     F146201   8.799   8.124  10.706
  826DIO     C146202   8.721   8.106  10.598
  826DIO     C246203   8.577   8.100  10.614
  826DIO     C346204   8.488   8.079  10.497
  826DIO     C446205   8.554   8.066  10.365
  826DIO     C546206   8.698   8.072  10.352
  826DIO     F246207   8.754   8.065  10.229
  826DIO     C646208   8.782   8.093  10.468
  826DIO     F346209   8.916   8.098  10.454
  826DIO     C746210   8.342   8.071  10.511
  826DIO     C846211   8.265   7.959  10.452
  826DIO     C946212   8.120   7.952  10.465
  826DIO    C1046213   8.048   8.060  10.529
  826DIO    C1146214   8.120   8.168  10.595
  826DIO    C1246215   8.264   8.173  10.584
  826DIO     F446216   8.329   8.277  10.641
  826DIO     O146217   7.915   8.036  10.560
  826DIO    C1346218   7.821   8.138  10.555
  826DIO     O246219   7.820   8.251  10.499
  826DIO    C1446220   7.692   8.098  10.612
  826DIO    C1546221   7.626   7.971  10.574
  826DIO     F546222   7.688   7.884  10.492
  826DIO    C1646223   7.495   7.933  10.624
  826DIO    C1746224   7.419   8.024  10.710
  826DIO    C1846225   7.488   8.141  10.762
  826DIO    C1946226   7.619   8.178  10.713
  826DIO     F646227   7.682   8.280  10.776
  826DIO    C2046228   7.278   7.991  10.753
  826DIO     O346229   7.209   7.904  10.663
  826DIO    C2146230   7.165   7.971  10.545
  826DIO    C2246231   7.076   8.090  10.580
  826DIO    C2346232   7.157   8.180  10.674
  826DIO     O446233   7.201   8.107  10.788
  826DIO    C2446234   6.943   8.049  10.647
  826DIO    C2546235   6.853   7.956  10.566
  826DIO    C2646236   6.814   8.012  10.430
  826DIO     H146237   8.535   8.112  10.713
  826DIO     H246238   8.493   8.060  10.275
  826DIO     H346239   8.316   7.878  10.402
  826DIO     H446240   8.065   7.866  10.430
  826DIO     H546241   8.066   8.245  10.647
  826DIO     H646242   7.457   7.835  10.599
  826DIO     H746243   7.445   8.200  10.842
  826DIO     H846244   7.288   7.934  10.847
  826DIO     H946245   7.252   8.003  10.487
  826DIO    H1046246   7.112   7.898  10.483
  826DIO    H1146247   7.053   8.146  10.489
  826DIO    H1246248   7.096   8.263  10.709
  826DIO    H1346249   7.243   8.223  10.622
  826DIO    H1446250   6.963   8.000  10.744
  826DIO    H1546251   6.887   8.140  10.671
  826DIO    H1646252   6.900   7.858  10.553
  826DIO    H1746253   6.761   7.939  10.623
  826DIO    H1846254   6.770   8.112  10.439
  826DIO    H1946255   6.901   8.018  10.363
  826DIO    H2046256   6.740   7.947  10.382
  827DIO     F146257   6.921   3.930   4.178
  827DIO     C146258   6.843   3.973   4.077
  827DIO     C246259   6.699   3.960   4.087
  827DIO     C346260   6.610   4.003   3.977
  827DIO     C446261   6.676   4.063   3.858
  827DIO     C546262   6.820   4.075   3.850
  827DIO     F246263   6.875   4.134   3.742
  827DIO     C646264   6.904   4.031   3.959
  827DIO     F346265   7.037   4.042   3.950
  827DIO     C746266   6.464   3.989   3.984
  827DIO     C846267   6.387   3.926   3.875
  827DIO     C946268   6.242   3.913   3.882
  827DIO    C1046269   6.169   3.971   3.994
  827DIO    C1146270   6.242   4.027   4.107
  827DIO    C1246271   6.386   4.037   4.100
  827DIO     F446272   6.451   4.094   4.204
  827DIO     O146273   6.037   3.934   4.006
  827DIO    C1346274   5.943   4.023   4.057
  827DIO     O246275   5.942   4.148   4.070
  827DIO    C1446276   5.814   3.959   4.084
  827DIO    C1546277   5.747   3.871   3.984
  827DIO     F546278   5.810   3.841   3.869
  827DIO    C1646279   5.616   3.813   4.007
  827DIO    C1746280   5.541   3.844   4.127
  827DIO    C1846281   5.609   3.916   4.234
  827DIO    C1946282   5.741   3.973   4.212
  827DIO     F646283   5.804   4.025   4.320
  827DIO    C2046284   5.400   3.793   4.147
  827DIO     O346285   5.330   3.767   4.024
  827DIO    C2146286   5.287   3.886   3.960
  827DIO    C2246287   5.198   3.969   4.053
  827DIO    C2346288   5.278   3.995   4.180
  827DIO     O446289   5.323   3.872   4.237
  827DIO    C2446290   5.065   3.898   4.088
  827DIO    C2546291   4.974   3.863   3.970
  827DIO    C2646292   4.936   3.983   3.884
  827DIO     H146293   6.656   3.917   4.177
  827DIO     H246294   6.615   4.105   3.779
  827DIO     H346295   6.438   3.884   3.790
  827DIO     H446296   6.187   3.859   3.806
  827DIO     H546297   6.187   4.064   4.192
  827DIO     H646298   5.578   3.742   3.933
  827DIO     H746299   5.567   3.922   4.333
  827DIO     H846300   5.410   3.695   4.195
  827DIO     H946301   5.373   3.945   3.928
  827DIO    H1046302   5.234   3.858   3.869
  827DIO    H1146303   5.175   4.065   4.005
  827DIO    H1246304   5.217   4.046   4.254
  827DIO    H1346305   5.365   4.059   4.159
  827DIO    H1446306   5.085   3.806   4.144
  827DIO    H1546307   5.008   3.963   4.156
  827DIO    H1646308   5.022   3.787   3.907
  827DIO    H1746309   4.882   3.818   4.009
  827DIO    H1846310   4.892   4.063   3.945
  827DIO    H1946311   5.022   4.024   3.831
  827DIO    H2046312   4.862   3.953   3.809
  828DIO     F146313  10.520   2.626  10.750
  828DIO     C146314  10.442   2.736  10.752
  828DIO     C246315  10.298   2.721  10.743
  828DIO     C346316  10.209   2.839  10.742
  828DIO     C446317  10.275   2.972  10.752
  828DIO     C546318  10.419   2.984  10.761
  828DIO     F246319  10.475   3.106  10.775
  828DIO     C646320  10.503   2.866  10.761
  828DIO     F346321  10.637   2.879  10.768
  828DIO     C746322  10.063   2.827  10.732
  828DIO     C846323   9.986   2.905  10.632
  828DIO     C946324   9.841   2.893  10.623
  828DIO    C1046325   9.769   2.811  10.718
  828DIO    C1146326   9.841   2.728  10.813
  828DIO    C1246327   9.985   2.738  10.820
  828DIO     F446328  10.050   2.663  10.912
  828DIO     O146329   9.636   2.786  10.689
  828DIO    C1346330   9.542   2.773  10.790
  828DIO     O246331   9.541   2.808  10.911
  828DIO    C1446332   9.413   2.723  10.741
  828DIO    C1546333   9.346   2.783  10.623
  828DIO     F546334   9.409   2.878  10.551
  828DIO    C1646335   9.216   2.740  10.577
  828DIO    C1746336   9.140   2.640  10.651
  828DIO    C1846337   9.209   2.568  10.758
  828DIO    C1946338   9.340   2.610  10.803
  828DIO     F646339   9.403   2.530  10.892
  828DIO    C2046340   8.999   2.602  10.611
  828DIO     O346341   8.929   2.706  10.541
  828DIO    C2146342   8.886   2.811  10.627
  828DIO    C2246343   8.797   2.756  10.739
  828DIO    C2346344   8.878   2.648  10.811
  828DIO     O446345   8.922   2.548  10.719
  828DIO    C2446346   8.664   2.697  10.687
  828DIO    C2546347   8.573   2.793  10.610
  828DIO    C2646348   8.535   2.918  10.688
  828DIO     H146349  10.256   2.622  10.737
  828DIO     H246350  10.214   3.062  10.762
  828DIO     H346351  10.037   2.968  10.561
  828DIO     H446352   9.786   2.943  10.544
  828DIO     H546353   9.787   2.663  10.880
  828DIO     H646354   9.178   2.781  10.484
  828DIO     H746355   9.166   2.479  10.802
  828DIO     H846356   9.009   2.521  10.539
  828DIO     H946357   8.972   2.863  10.669
  828DIO    H1046358   8.833   2.884  10.567
  828DIO    H1146359   8.774   2.836  10.810
  828DIO    H1246360   8.817   2.598  10.887
  828DIO    H1346361   8.964   2.692  10.863
  828DIO    H1446362   8.684   2.610  10.622
  828DIO    H1546363   8.608   2.658  10.773
  828DIO    H1646364   8.621   2.823  10.515
  828DIO    H1746365   8.482   2.740  10.582
  828DIO    H1846366   8.491   2.891  10.785
  828DIO    H1946367   8.622   2.982  10.706
  828DIO    H2046368   8.461   2.976  10.632
  829DIO     F146369   6.022   2.483   6.164
  829DIO     C146370   5.944   2.426   6.070
  829DIO     C246371   5.800   2.426   6.087
  829DIO     C346372   5.712   2.363   5.987
  829DIO     C446373   5.777   2.303   5.868
  829DIO     C546374   5.921   2.304   5.854
  829DIO     F246375   5.977   2.252   5.743
  829DIO     C646376   6.005   2.366   5.954
  829DIO     F346377   6.139   2.365   5.940
  829DIO     C746378   5.565   2.361   6.003
  829DIO     C846379   5.488   2.236   5.989
  829DIO     C946380   5.343   2.234   6.004
  829DIO    C1046381   5.271   2.358   6.023
  829DIO    C1146382   5.343   2.482   6.045
  829DIO    C1246383   5.487   2.483   6.032
  829DIO     F446384   5.552   2.601   6.048
  829DIO     O146385   5.139   2.346   6.061
  829DIO    C1346386   5.044   2.439   6.018
  829DIO     O246387   5.043   2.524   5.925
  829DIO    C1446388   4.915   2.424   6.086
  829DIO    C1546389   4.849   2.292   6.098
  829DIO     F546390   4.911   2.181   6.054
  829DIO    C1646391   4.718   2.275   6.158
  829DIO    C1746392   4.642   2.391   6.204
  829DIO    C1846393   4.711   2.519   6.210
  829DIO    C1946394   4.842   2.536   6.150
  829DIO     F646395   4.905   2.653   6.172
  829DIO    C2046396   4.501   2.376   6.257
  829DIO     O346397   4.432   2.262   6.205
  829DIO    C2146398   4.388   2.281   6.071
  829DIO    C2246399   4.299   2.405   6.059
  829DIO    C2346400   4.380   2.522   6.114
  829DIO     O446401   4.424   2.496   6.247
  829DIO    C2446402   4.166   2.391   6.137
  829DIO    C2546403   4.076   2.275   6.095
  829DIO    C2646404   4.037   2.277   5.948
  829DIO     H146405   5.758   2.474   6.175
  829DIO     H246406   5.716   2.264   5.787
  829DIO     H346407   5.540   2.142   5.972
  829DIO     H446408   5.288   2.141   6.002
  829DIO     H546409   5.289   2.573   6.065
  829DIO     H646410   4.680   2.174   6.172
  829DIO     H746411   4.668   2.603   6.263
  829DIO     H846412   4.511   2.358   6.365
  829DIO     H946413   4.475   2.290   6.005
  829DIO    H1046414   4.335   2.191   6.040
  829DIO    H1146415   4.277   2.423   5.954
  829DIO    H1246416   4.319   2.613   6.116
  829DIO    H1346417   4.466   2.544   6.049
  829DIO    H1446418   4.186   2.382   6.245
  829DIO    H1546419   4.110   2.485   6.125
  829DIO    H1646420   4.123   2.179   6.120
  829DIO    H1746421   3.984   2.280   6.156
  829DIO    H1846422   3.993   2.373   5.920
  829DIO    H1946423   4.124   2.258   5.884
  829DIO    H2046424   3.964   2.198   5.928
  830DIO     F146425   8.230   3.234   0.591
  830DIO     C146426   8.152   3.150   0.519
  830DIO     C246427   8.008   3.156   0.535
  830DIO     C346428   7.919   3.064   0.460
  830DIO     C446429   7.985   2.969   0.367
  830DIO     C546430   8.129   2.965   0.353
  830DIO     F246431   8.185   2.880   0.265
  830DIO     C646432   8.213   3.056   0.428
  830DIO     F346433   8.347   3.051   0.415
  830DIO     C746434   7.773   3.067   0.476
  830DIO     C846435   7.696   2.944   0.503
  830DIO     C946436   7.551   2.947   0.518
  830DIO    C1046437   7.479   3.071   0.497
  830DIO    C1146438   7.551   3.195   0.478
  830DIO    C1246439   7.695   3.192   0.465
  830DIO     F446440   7.760   3.308   0.442
  830DIO     O146441   7.346   3.071   0.536
  830DIO    C1346442   7.252   3.146   0.466
  830DIO     O246443   7.251   3.197   0.351
  830DIO    C1446444   7.123   3.153   0.535
  830DIO    C1546445   7.057   3.031   0.588
  830DIO     F546446   7.119   2.912   0.582
  830DIO    C1646447   6.926   3.035   0.651
  830DIO    C1746448   6.850   3.159   0.658
  830DIO    C1846449   6.919   3.283   0.622
  830DIO    C1946450   7.050   3.279   0.560
  830DIO     F646451   7.113   3.398   0.543
  830DIO    C2046452   6.709   3.162   0.713
  830DIO     O346453   6.640   3.038   0.700
  830DIO    C2146454   6.596   3.013   0.567
  830DIO    C2246455   6.507   3.126   0.516
  830DIO    C2346456   6.588   3.255   0.530
  830DIO     O446457   6.632   3.273   0.664
  830DIO    C2446458   6.374   3.138   0.594
  830DIO    C2546459   6.284   3.015   0.591
  830DIO    C2646460   6.245   2.970   0.452
  830DIO     H146461   7.966   3.228   0.603
  830DIO     H246462   7.924   2.906   0.303
  830DIO     H346463   7.747   2.850   0.517
  830DIO     H446464   7.496   2.858   0.546
  830DIO     H546465   7.497   3.288   0.467
  830DIO     H646466   6.888   2.944   0.696
  830DIO     H746467   6.876   3.379   0.645
  830DIO     H846468   6.719   3.179   0.821
  830DIO     H946469   6.683   3.000   0.501
  830DIO    H1046470   6.543   2.917   0.566
  830DIO    H1146471   6.484   3.110   0.410
  830DIO    H1246472   6.527   3.342   0.503
  830DIO    H1346473   6.674   3.255   0.462
  830DIO    H1446474   6.394   3.163   0.699
  830DIO    H1546475   6.318   3.223   0.553
  830DIO    H1646476   6.331   2.932   0.645
  830DIO    H1746477   6.192   3.038   0.647
  830DIO    H1846478   6.201   3.052   0.394
  830DIO    H1946479   6.332   2.931   0.397
  830DIO    H2046480   6.171   2.889   0.457
  831DIO     F146481   5.394   4.734  10.053
  831DIO     C146482   5.316   4.823  10.117
  831DIO     C246483   5.172   4.817  10.102
  831DIO     C346484   5.083   4.914  10.169
  831DIO     C446485   5.149   5.016  10.254
  831DIO     C546486   5.293   5.021  10.268
  831DIO     F246487   5.349   5.113  10.349
  831DIO     C646488   5.377   4.925  10.200
  831DIO     F346489   5.511   4.931  10.213
  831DIO     C746490   4.937   4.910  10.154
  831DIO     C846491   4.860   5.030  10.117
  831DIO     C946492   4.715   5.026  10.102
  831DIO    C1046493   4.643   4.904  10.134
  831DIO    C1146494   4.715   4.782  10.162
  831DIO    C1246495   4.859   4.786  10.174
  831DIO     F446496   4.924   4.672  10.207
  831DIO     O146497   4.510   4.901  10.095
  831DIO    C1346498   4.416   4.832  10.170
  831DIO     O246499   4.415   4.791  10.289
  831DIO    C1446500   4.287   4.820  10.102
  831DIO    C1546501   4.221   4.936  10.039
  831DIO     F546502   4.283   5.056  10.035
  831DIO    C1646503   4.090   4.928   9.977
  831DIO    C1746504   4.014   4.803   9.980
  831DIO    C1846505   4.083   4.683  10.026
  831DIO    C1946506   4.214   4.691  10.087
  831DIO     F646507   4.277   4.575  10.113
  831DIO    C2046508   3.873   4.795   9.926
  831DIO     O346509   3.804   4.921   9.928
  831DIO    C2146510   3.760   4.956  10.059
  831DIO    C2246511   3.671   4.848  10.119
  831DIO    C2346512   3.752   4.718  10.115
  831DIO     O446513   3.796   4.689   9.983
  831DIO    C2446514   3.538   4.829  10.042
  831DIO    C2546515   3.448   4.952  10.034
  831DIO    C2646516   3.409   5.009  10.170
  831DIO     H146517   5.130   4.739  10.040
  831DIO     H246518   5.088   5.084  10.313
  831DIO     H346519   4.911   5.123  10.095
  831DIO     H446520   4.660   5.112  10.067
  831DIO     H546521   4.661   4.690  10.180
  831DIO     H646522   4.052   5.015   9.925
  831DIO     H746523   4.040   4.585  10.010
  831DIO     H846524   3.883   4.770   9.819
  831DIO     H946525   3.847   4.975  10.123
  831DIO    H1046526   3.707   5.052  10.052
  831DIO    H1146527   3.648   4.872  10.223
  831DIO    H1246528   3.691   4.633  10.149
  831DIO    H1346529   3.838   4.724  10.183
  831DIO    H1446530   3.558   4.796   9.939
  831DIO    H1546531   3.482   4.748  10.090
  831DIO    H1646532   3.495   5.031   9.974
  831DIO    H1746533   3.356   4.924   9.981
  831DIO    H1846534   3.365   4.932  10.234
  831DIO    H1946535   3.496   5.051  10.222
  831DIO    H2046536   3.335   5.089  10.158
  832DIO     F146537   9.091   6.466   6.711
  832DIO     C146538   9.014   6.438   6.818
  832DIO     C246539   8.870   6.450   6.806
  832DIO     C346540   8.781   6.423   6.921
  832DIO     C446541   8.846   6.382   7.047
  832DIO     C546542   8.991   6.370   7.057
  832DIO     F246543   9.046   6.328   7.172
  832DIO     C646544   9.074   6.398   6.943
  832DIO     F346545   9.208   6.388   6.953
  832DIO     C746546   8.635   6.436   6.911
  832DIO     C846547   8.557   6.514   7.011
  832DIO     C946548   8.413   6.526   7.001
  832DIO    C1046549   8.340   6.453   6.899
  832DIO    C1146550   8.413   6.381   6.796
  832DIO    C1246551   8.557   6.371   6.804
  832DIO     F446552   8.622   6.300   6.710
  832DIO     O146553   8.208   6.488   6.882
  832DIO    C1346554   8.113   6.392   6.845
  832DIO     O246555   8.113   6.267   6.850
  832DIO    C1446556   7.984   6.452   6.809
  832DIO    C1546557   7.918   6.553   6.894
  832DIO     F546558   7.981   6.600   7.004
  832DIO    C1646559   7.787   6.608   6.864
  832DIO    C1746560   7.711   6.559   6.749
  832DIO    C1846561   7.780   6.472   6.654
  832DIO    C1946562   7.912   6.419   6.684
  832DIO     F646563   7.974   6.351   6.585
  832DIO    C2046564   7.571   6.607   6.722
  832DIO     O346565   7.501   6.650   6.839
  832DIO    C2146566   7.457   6.541   6.920
  832DIO    C2246567   7.368   6.446   6.841
  832DIO    C2346568   7.449   6.402   6.719
  832DIO     O446569   7.493   6.515   6.644
  832DIO    C2446570   7.236   6.511   6.796
  832DIO    C2546571   7.145   6.563   6.908
  832DIO    C2646572   7.107   6.457   7.010
  832DIO     H146573   8.827   6.480   6.711
  832DIO     H246574   8.786   6.351   7.132
  832DIO     H346575   8.609   6.568   7.089
  832DIO     H446576   8.358   6.590   7.069
  832DIO     H546577   8.358   6.331   6.717
  832DIO     H646578   7.749   6.688   6.926
  832DIO     H746579   7.737   6.451   6.557
  832DIO     H846580   7.580   6.697   6.660
  832DIO     H946581   7.544   6.488   6.961
  832DIO    H1046582   7.405   6.583   7.007
  832DIO    H1146583   7.346   6.358   6.902
  832DIO    H1246584   7.388   6.340   6.653
  832DIO    H1346585   7.535   6.341   6.749
  832DIO    H1446586   7.256   6.594   6.727
  832DIO    H1546587   7.179   6.437   6.738
  832DIO    H1646588   7.192   6.647   6.959
  832DIO    H1746589   7.053   6.602   6.862
  832DIO    H1846590   7.063   6.369   6.961
  832DIO    H1946591   7.193   6.424   7.068
  832DIO    H2046592   7.033   6.497   7.080
  833DIO     F146593   3.610   2.188   2.053
  833DIO     C146594   3.533   2.107   1.978
  833DIO     C246595   3.389   2.112   1.994
  833DIO     C346596   3.300   2.024   1.916
  833DIO     C446597   3.365   1.932   1.819
  833DIO     C546598   3.510   1.930   1.805
  833DIO     F246599   3.565   1.848   1.713
  833DIO     C646600   3.593   2.017   1.884
  833DIO     F346601   3.727   2.012   1.870
  833DIO     C746602   3.153   2.026   1.932
  833DIO     C846603   3.076   1.902   1.954
  833DIO     C946604   2.932   1.904   1.969
  833DIO    C1046605   2.859   2.029   1.952
  833DIO    C1146606   2.932   2.154   1.938
  833DIO    C1246607   3.076   2.152   1.926
  833DIO     F446608   3.141   2.269   1.908
  833DIO     O146609   2.727   2.028   1.991
  833DIO    C1346610   2.632   2.106   1.925
  833DIO     O246611   2.631   2.161   1.812
  833DIO    C1446612   2.503   2.109   1.994
  833DIO    C1546613   2.437   1.986   2.042
  833DIO     F546614   2.500   1.867   2.032
  833DIO    C1646615   2.306   1.987   2.105
  833DIO    C1746616   2.230   2.111   2.117
  833DIO    C1846617   2.299   2.236   2.086
  833DIO    C1946618   2.431   2.235   2.024
  833DIO     F646619   2.493   2.354   2.012
  833DIO    C2046620   2.090   2.112   2.172
  833DIO     O346621   2.020   1.988   2.154
  833DIO    C2146622   1.976   1.969   2.020
  833DIO    C2246623   1.887   2.084   1.974
  833DIO    C2346624   1.968   2.212   1.993
  833DIO     O446625   2.012   2.224   2.128
  833DIO    C2446626   1.755   2.093   2.052
  833DIO    C2546627   1.664   1.969   2.045
  833DIO    C2646628   1.625   1.930   1.903
  833DIO     H146629   3.346   2.182   2.065
  833DIO     H246630   3.305   1.872   1.752
  833DIO     H346631   3.128   1.807   1.964
  833DIO     H446632   2.877   1.815   1.993
  833DIO     H546633   2.877   2.247   1.932
  833DIO     H646634   2.268   1.894   2.146
  833DIO     H746635   2.256   2.332   2.113
  833DIO     H846636   2.099   2.124   2.280
  833DIO     H946637   2.063   1.958   1.954
  833DIO    H1046638   1.923   1.873   2.016
  833DIO    H1146639   1.865   2.072   1.868
  833DIO    H1246640   1.907   2.300   1.970
  833DIO    H1346641   2.054   2.214   1.925
  833DIO    H1446642   1.774   2.114   2.158
  833DIO    H1546643   1.698   2.179   2.015
  833DIO    H1646644   1.711   1.884   2.095
  833DIO    H1746645   1.572   1.991   2.101
  833DIO    H1846646   1.582   2.014   1.849
  833DIO    H1946647   1.712   1.894   1.847
  833DIO    H2046648   1.552   1.849   1.906
  834DIO     F146649  10.145  -0.756   7.805
  834DIO     C146650  10.068  -0.704   7.902
  834DIO     C246651   9.924  -0.704   7.885
  834DIO     C346652   9.835  -0.645   7.988
  834DIO     C446653   9.900  -0.591   8.109
  834DIO     C546654  10.045  -0.593   8.123
  834DIO     F246655  10.100  -0.546   8.237
  834DIO     C646656  10.128  -0.650   8.021
  834DIO     F346657  10.262  -0.650   8.035
  834DIO     C746658   9.688  -0.643   7.972
  834DIO     C846659   9.611  -0.518   7.992
  834DIO     C946660   9.467  -0.515   7.977
  834DIO    C1046661   9.394  -0.639   7.952
  834DIO    C1146662   9.467  -0.761   7.924
  834DIO    C1246663   9.611  -0.763   7.936
  834DIO     F446664   9.676  -0.880   7.916
  834DIO     O146665   9.262  -0.625   7.915
  834DIO    C1346666   9.167  -0.720   7.953
  834DIO     O246667   9.166  -0.809   8.042
  834DIO    C1446668   9.038  -0.701   7.886
  834DIO    C1546669   8.972  -0.569   7.880
  834DIO     F546670   9.035  -0.460   7.929
  834DIO    C1646671   8.841  -0.549   7.821
  834DIO    C1746672   8.765  -0.662   7.769
  834DIO    C1846673   8.834  -0.791   7.758
  834DIO    C1946674   8.966  -0.810   7.816
  834DIO     F646675   9.028  -0.926   7.789
  834DIO    C2046676   8.625  -0.645   7.717
  834DIO     O346677   8.555  -0.534   7.774
  834DIO    C2146678   8.511  -0.559   7.907
  834DIO    C2246679   8.422  -0.683   7.913
  834DIO    C2346680   8.503  -0.798   7.853
  834DIO     O446681   8.547  -0.766   7.722
  834DIO    C2446682   8.290  -0.666   7.836
  834DIO    C2546683   8.199  -0.552   7.883
  834DIO    C2646684   8.160  -0.561   8.030
  834DIO     H146685   9.881  -0.747   7.795
  834DIO     H246686   9.840  -0.556   8.192
  834DIO     H346687   9.663  -0.425   8.013
  834DIO     H446688   9.412  -0.423   7.983
  834DIO     H546689   9.412  -0.852   7.900
  834DIO     H646690   8.803  -0.448   7.812
  834DIO     H746691   8.791  -0.872   7.701
  834DIO     H846692   8.634  -0.622   7.610
  834DIO     H946693   8.598  -0.571   7.973
  834DIO    H1046694   8.458  -0.470   7.943
  834DIO    H1146695   8.400  -0.707   8.018
  834DIO    H1246696   8.442  -0.889   7.847
  834DIO    H1346697   8.589  -0.823   7.917
  834DIO    H1446698   8.309  -0.651   7.729
  834DIO    H1546699   8.233  -0.760   7.844
  834DIO    H1646700   8.246  -0.455   7.864
  834DIO    H1746701   8.107  -0.554   7.823
  834DIO    H1846702   8.117  -0.658   8.054
  834DIO    H1946703   8.247  -0.545   8.095
  834DIO    H2046704   8.087  -0.484   8.054
  835DIO     F146705   9.580   4.000   9.743
  835DIO     C146706   9.503   4.103   9.782
  835DIO     C246707   9.358   4.092   9.769
  835DIO     C346708   9.270   4.204   9.809
  835DIO     C446709   9.335   4.325   9.865
  835DIO     C546710   9.479   4.333   9.877
  835DIO     F246711   9.535   4.442   9.932
  835DIO     C646712   9.563   4.222   9.837
  835DIO     F346713   9.697   4.231   9.847
  835DIO     C746714   9.123   4.196   9.795
  835DIO     C846715   9.046   4.303   9.729
  835DIO     C946716   8.901   4.295   9.716
  835DIO    C1046717   8.829   4.186   9.777
  835DIO    C1146718   8.901   4.075   9.837
  835DIO    C1246719   9.045   4.081   9.847
  835DIO     F446720   9.110   3.980   9.908
  835DIO     O146721   8.697   4.172   9.741
  835DIO    C1346722   8.602   4.125   9.831
  835DIO     O246723   8.601   4.115   9.957
  835DIO    C1446724   8.473   4.095   9.768
  835DIO    C1546725   8.407   4.192   9.678
  835DIO     F546726   8.469   4.306   9.643
  835DIO    C1646727   8.276   4.168   9.620
  835DIO    C1746728   8.200   4.048   9.655
  835DIO    C1846729   8.269   3.944   9.730
  835DIO    C1946730   8.401   3.968   9.787
  835DIO     F646731   8.463   3.862   9.843
  835DIO    C2046732   8.059   4.027   9.604
  835DIO     O346733   7.990   4.148   9.575
  835DIO    C2146734   7.946   4.216   9.692
  835DIO    C2246735   7.857   4.127   9.777
  835DIO    C2346736   7.938   4.000   9.807
  835DIO     O446737   7.982   3.939   9.687
  835DIO    C2446738   7.724   4.089   9.708
  835DIO    C2546739   7.634   4.206   9.669
  835DIO    C2646740   7.595   4.296   9.786
  835DIO     H146741   9.316   4.001   9.729
  835DIO     H246742   9.275   4.405   9.905
  835DIO     H346743   9.098   4.387   9.684
  835DIO     H446744   8.846   4.369   9.660
  835DIO     H546745   8.847   3.991   9.877
  835DIO     H646746   8.238   4.238   9.547
  835DIO     H746747   8.226   3.845   9.740
  835DIO     H846748   8.069   3.975   9.508
  835DIO     H946749   8.033   4.251   9.749
  835DIO    H1046750   7.893   4.307   9.660
  835DIO    H1146751   7.835   4.177   9.872
  835DIO    H1246752   7.877   3.928   9.861
  835DIO    H1346753   8.024   4.023   9.871
  835DIO    H1446754   7.744   4.030   9.617
  835DIO    H1546755   7.668   4.023   9.775
  835DIO    H1646756   7.681   4.267   9.591
  835DIO    H1746757   7.542   4.165   9.625
  835DIO    H1846758   7.551   4.238   9.867
  835DIO    H1946759   7.682   4.350   9.825
  835DIO    H2046760   7.522   4.370   9.753
  836DIO     F146761   5.460   7.886   8.688
  836DIO     C146762   5.383   7.916   8.582
  836DIO     C246763   5.238   7.904   8.594
  836DIO     C346764   5.150   7.933   8.479
  836DIO     C446765   5.215   7.977   8.354
  836DIO     C546766   5.359   7.988   8.345
  836DIO     F246767   5.415   8.033   8.230
  836DIO     C646768   5.443   7.958   8.459
  836DIO     F346769   5.577   7.968   8.448
  836DIO     C746770   5.003   7.920   8.489
  836DIO     C846771   4.926   7.843   8.388
  836DIO     C946772   4.781   7.831   8.397
  836DIO    C1046773   4.709   7.903   8.501
  836DIO    C1146774   4.781   7.973   8.606
  836DIO    C1246775   4.925   7.982   8.598
  836DIO     F446776   4.990   8.052   8.693
  836DIO     O146777   4.577   7.868   8.518
  836DIO    C1346778   4.482   7.962   8.556
  836DIO     O246779   4.481   8.088   8.553
  836DIO    C1446780   4.353   7.902   8.591
  836DIO    C1546781   4.287   7.803   8.504
  836DIO     F546782   4.349   7.758   8.393
  836DIO    C1646783   4.156   7.748   8.534
  836DIO    C1746784   4.080   7.794   8.649
  836DIO    C1846785   4.149   7.879   8.746
  836DIO    C1946786   4.281   7.933   8.717
  836DIO     F646787   4.343   7.999   8.817
  836DIO    C2046788   3.939   7.746   8.675
  836DIO     O346789   3.870   7.705   8.557
  836DIO    C2146790   3.826   7.815   8.478
  836DIO    C2246791   3.737   7.908   8.559
  836DIO    C2346792   3.818   7.950   8.682
  836DIO     O446793   3.862   7.836   8.755
  836DIO    C2446794   3.604   7.843   8.603
  836DIO    C2546795   3.514   7.793   8.490
  836DIO    C2646796   3.475   7.901   8.390
  836DIO     H146797   5.196   7.873   8.689
  836DIO     H246798   5.155   8.009   8.270
  836DIO     H346799   4.978   7.791   8.309
  836DIO     H446800   4.726   7.768   8.329
  836DIO     H546801   4.727   8.021   8.685
  836DIO     H646802   4.118   7.669   8.470
  836DIO     H746803   4.106   7.898   8.843
  836DIO     H846804   3.949   7.655   8.736
  836DIO     H946805   3.913   7.869   8.439
  836DIO    H1046806   3.773   7.775   8.391
  836DIO    H1146807   3.715   7.998   8.500
  836DIO    H1246808   3.757   8.011   8.750
  836DIO    H1346809   3.904   8.012   8.653
  836DIO    H1446810   3.624   7.758   8.670
  836DIO    H1546811   3.548   7.916   8.663
  836DIO    H1646812   3.561   7.709   8.438
  836DIO    H1746813   3.422   7.753   8.535
  836DIO    H1846814   3.431   7.988   8.440
  836DIO    H1946815   3.562   7.934   8.332
  836DIO    H2046816   3.402   7.862   8.319
  837DIO     F146817   1.150   8.648   1.263
  837DIO     C146818   1.072   8.693   1.163
  837DIO     C246819   0.928   8.680   1.173
  837DIO     C346820   0.839   8.726   1.064
  837DIO     C446821   0.905   8.789   0.946
  837DIO     C546822   1.049   8.801   0.939
  837DIO     F246823   1.104   8.863   0.833
  837DIO     C646824   1.133   8.754   1.047
  837DIO     F346825   1.266   8.766   1.038
  837DIO     C746826   0.693   8.712   1.071
  837DIO     C846827   0.616   8.651   0.960
  837DIO     C946828   0.471   8.638   0.967
  837DIO    C1046829   0.398   8.693   1.080
  837DIO    C1146830   0.471   8.746   1.194
  837DIO    C1246831   0.615   8.757   1.188
  837DIO     F446832   0.680   8.812   1.293
  837DIO     O146833   0.266   8.656   1.092
  837DIO    C1346834   0.172   8.744   1.144
  837DIO     O246835   0.171   8.868   1.160
  837DIO    C1446836   0.042   8.679   1.170
  837DIO    C1546837  -0.024   8.594   1.068
  837DIO     F546838   0.039   8.566   0.952
  837DIO    C1646839  -0.155   8.535   1.089
  837DIO    C1746840  -0.230   8.563   1.210
  837DIO    C1846841  -0.162   8.632   1.319
  837DIO    C1946842  -0.030   8.690   1.298
  837DIO     F646843   0.032   8.740   1.407
  837DIO    C2046844  -0.371   8.511   1.229
  837DIO     O346845  -0.441   8.489   1.106
  837DIO    C2146846  -0.485   8.610   1.044
  837DIO    C2246847  -0.573   8.690   1.139
  837DIO    C2346848  -0.493   8.712   1.267
  837DIO     O446849  -0.448   8.589   1.321
  837DIO    C2446850  -0.706   8.618   1.172
  837DIO    C2546851  -0.797   8.586   1.053
  837DIO    C2646852  -0.835   8.708   0.971
  837DIO     H146853   0.885   8.635   1.262
  837DIO     H246854   0.844   8.833   0.868
  837DIO     H346855   0.667   8.612   0.874
  837DIO     H446856   0.416   8.586   0.890
  837DIO     H546857   0.416   8.782   1.281
  837DIO     H646858  -0.193   8.466   1.014
  837DIO     H746859  -0.205   8.636   1.418
  837DIO     H846860  -0.361   8.412   1.275
  837DIO     H946861  -0.398   8.669   1.014
  837DIO    H1046862  -0.537   8.583   0.952
  837DIO    H1146863  -0.596   8.787   1.094
  837DIO    H1246864  -0.554   8.762   1.343
  837DIO    H1346865  -0.407   8.778   1.247
  837DIO    H1446866  -0.686   8.525   1.226
  837DIO    H1546867  -0.763   8.682   1.242
  837DIO    H1646868  -0.750   8.512   0.989
  837DIO    H1746869  -0.889   8.540   1.091
  837DIO    H1846870  -0.879   8.786   1.033
  837DIO    H1946871  -0.749   8.750   0.918
  837DIO    H2046872  -0.909   8.680   0.895
  838DIO     F146873   4.046   4.746   3.608
  838DIO     C146874   3.968   4.702   3.709
  838DIO     C246875   3.824   4.716   3.699
  838DIO     C346876   3.736   4.671   3.809
  838DIO     C446877   3.801   4.610   3.927
  838DIO     C546878   3.945   4.598   3.935
  838DIO     F246879   4.001   4.538   4.042
  838DIO     C646880   4.029   4.643   3.826
  838DIO     F346881   4.163   4.632   3.835
  838DIO     C746882   3.589   4.685   3.801
  838DIO     C846883   3.512   4.747   3.911
  838DIO     C946884   3.367   4.761   3.904
  838DIO    C1046885   3.295   4.704   3.792
  838DIO    C1146886   3.367   4.649   3.679
  838DIO    C1246887   3.511   4.638   3.685
  838DIO     F446888   3.576   4.582   3.581
  838DIO     O146889   3.163   4.741   3.780
  838DIO    C1346890   3.068   4.652   3.729
  838DIO     O246891   3.067   4.527   3.714
  838DIO    C1446892   2.939   4.717   3.702
  838DIO    C1546893   2.873   4.803   3.802
  838DIO     F546894   2.935   4.832   3.918
  838DIO    C1646895   2.742   4.862   3.781
  838DIO    C1746896   2.666   4.832   3.660
  838DIO    C1846897   2.735   4.761   3.552
  838DIO    C1946898   2.866   4.704   3.574
  838DIO     F646899   2.929   4.652   3.466
  838DIO    C2046900   2.525   4.883   3.641
  838DIO     O346901   2.456   4.908   3.763
  838DIO    C2146902   2.412   4.788   3.827
  838DIO    C2246903   2.323   4.706   3.733
  838DIO    C2346904   2.404   4.682   3.606
  838DIO     O446905   2.448   4.805   3.549
  838DIO    C2446906   2.190   4.777   3.699
  838DIO    C2546907   2.100   4.811   3.817
  838DIO    C2646908   2.061   4.691   3.902
  838DIO     H146909   3.782   4.760   3.610
  838DIO     H246910   3.740   4.567   4.006
  838DIO     H346911   3.564   4.788   3.997
  838DIO     H446912   3.312   4.813   3.981
  838DIO     H546913   3.313   4.612   3.593
  838DIO     H646914   2.704   4.932   3.855
  838DIO     H746915   2.692   4.755   3.453
  838DIO     H846916   2.535   4.982   3.593
  838DIO     H946917   2.499   4.729   3.858
  838DIO    H1046918   2.359   4.816   3.918
  838DIO    H1146919   2.301   4.610   3.780
  838DIO    H1246920   2.343   4.631   3.531
  838DIO    H1346921   2.490   4.617   3.626
  838DIO    H1446922   2.210   4.870   3.644
  838DIO    H1546923   2.134   4.713   3.630
  838DIO    H1646924   2.147   4.887   3.881
  838DIO    H1746925   2.008   4.857   3.778
  838DIO    H1846926   2.017   4.611   3.840
  838DIO    H1946927   2.148   4.649   3.955
  838DIO    H2046928   1.988   4.720   3.977
  839DIO     F146929   1.509   5.241   0.468
  839DIO     C146930   1.431   5.172   0.553
  839DIO     C246931   1.287   5.188   0.547
  839DIO     C346932   1.199   5.115   0.640
  839DIO     C446933   1.264   5.024   0.737
  839DIO     C546934   1.408   5.010   0.741
  839DIO     F246935   1.464   4.923   0.828
  839DIO     C646936   1.492   5.083   0.649
  839DIO     F346937   1.626   5.070   0.654
  839DIO     C746938   1.052   5.131   0.637
  839DIO     C846939   0.975   5.160   0.760
  839DIO     C946940   0.830   5.175   0.756
  839DIO    C1046941   0.758   5.151   0.633
  839DIO    C1146942   0.830   5.129   0.509
  839DIO    C1246943   0.974   5.117   0.512
  839DIO     F446944   1.039   5.091   0.397
  839DIO     O146945   0.626   5.190   0.631
  839DIO    C1346946   0.531   5.119   0.558
  839DIO     O246947   0.530   5.002   0.510
  839DIO    C1446948   0.402   5.188   0.550
  839DIO    C1546949   0.336   5.244   0.670
  839DIO     F546950   0.398   5.240   0.790
  839DIO    C1646951   0.205   5.306   0.665
  839DIO    C1746952   0.129   5.310   0.541
  839DIO    C1846953   0.198   5.272   0.418
  839DIO    C1946954   0.329   5.210   0.423
  839DIO     F646955   0.392   5.190   0.305
  839DIO    C2046956  -0.012   5.365   0.536
  839DIO     O346957  -0.081   5.355   0.661
  839DIO    C2146958  -0.125   5.222   0.689
  839DIO    C2246959  -0.214   5.169   0.577
  839DIO    C2346960  -0.133   5.180   0.448
  839DIO     O446961  -0.089   5.314   0.427
  839DIO    C2446962  -0.347   5.247   0.563
  839DIO    C2546963  -0.437   5.247   0.687
  839DIO    C2646964  -0.476   5.108   0.735
  839DIO     H146965   1.245   5.254   0.473
  839DIO     H246966   1.203   4.961   0.802
  839DIO     H346967   1.027   5.176   0.853
  839DIO     H446968   0.775   5.205   0.844
  839DIO     H546969   0.776   5.117   0.416
  839DIO     H646970   0.167   5.353   0.755
  839DIO     H746971   0.155   5.293   0.321
  839DIO     H846972  -0.002   5.472   0.517
  839DIO     H946973  -0.038   5.157   0.703
  839DIO    H1046974  -0.178   5.224   0.785
  839DIO    H1146975  -0.236   5.064   0.595
  839DIO    H1246976  -0.194   5.152   0.361
  839DIO    H1346977  -0.047   5.112   0.449
  839DIO    H1446978  -0.327   5.351   0.536
  839DIO    H1546979  -0.403   5.204   0.479
  839DIO    H1646980  -0.390   5.303   0.768
  839DIO    H1746981  -0.529   5.302   0.662
  839DIO    H1846982  -0.520   5.049   0.654
  839DIO    H1946983  -0.389   5.054   0.774
  839DIO    H2046984  -0.549   5.116   0.815
  840DIO     F146985   6.121   0.351  -0.861
  840DIO     C146986   6.043   0.431  -0.786
  840DIO     C246987   5.899   0.427  -0.802
  840DIO     C346988   5.810   0.515  -0.723
  840DIO     C446989   5.876   0.605  -0.625
  840DIO     C546990   6.020   0.608  -0.611
  840DIO     F246991   6.076   0.688  -0.518
  840DIO     C646992   6.104   0.521  -0.690
  840DIO     F346993   6.238   0.525  -0.677
  840DIO     C746994   5.664   0.512  -0.738
  840DIO     C846995   5.587   0.637  -0.759
  840DIO     C946996   5.442   0.634  -0.774
  840DIO    C1046997   5.370   0.510  -0.759
  840DIO    C1146998   5.442   0.384  -0.746
  840DIO    C1246999   5.586   0.387  -0.734
  840DIO     F447000   5.651   0.270  -0.717
  840DIO     O147001   5.237   0.511  -0.798
  840DIO    C1347002   5.143   0.433  -0.732
  840DIO     O247003   5.142   0.377  -0.620
  840DIO    C1447004   5.014   0.430  -0.802
  840DIO    C1547005   4.947   0.553  -0.849
  840DIO     F547006   5.010   0.672  -0.837
  840DIO    C1647007   4.817   0.553  -0.912
  840DIO    C1747008   4.741   0.429  -0.925
  840DIO    C1847009   4.810   0.304  -0.895
  840DIO    C1947010   4.941   0.304  -0.833
  840DIO     F647011   5.004   0.185  -0.822
  840DIO    C2047012   4.600   0.429  -0.979
  840DIO     O347013   4.530   0.552  -0.960
  840DIO    C2147014   4.487   0.571  -0.826
  840DIO    C2247015   4.398   0.455  -0.781
  840DIO    C2347016   4.479   0.327  -0.802
  840DIO     O447017   4.523   0.316  -0.937
  840DIO    C2447018   4.265   0.447  -0.860
  840DIO    C2547019   4.174   0.570  -0.851
  840DIO    C2647020   4.136   0.608  -0.709
  840DIO     H147021   5.857   0.357  -0.874
  840DIO     H247022   5.815   0.664  -0.558
  840DIO     H347023   5.638   0.731  -0.769
  840DIO     H447024   5.387   0.724  -0.798
  840DIO     H547025   5.388   0.291  -0.741
  840DIO     H647026   4.779   0.646  -0.952
  840DIO     H747027   4.767   0.209  -0.923
  840DIO     H847028   4.610   0.417  -1.088
  840DIO     H947029   4.573   0.581  -0.760
  840DIO    H1047030   4.434   0.666  -0.821
  840DIO    H1147031   4.375   0.466  -0.675
  840DIO    H1247032   4.418   0.239  -0.779
  840DIO    H1347033   4.565   0.324  -0.734
  840DIO    H1447034   4.285   0.427  -0.966
  840DIO    H1547035   4.209   0.360  -0.823
  840DIO    H1647036   4.222   0.656  -0.901
  840DIO    H1747037   4.083   0.549  -0.908
  840DIO    H1847038   4.092   0.523  -0.656
  840DIO    H1947039   4.223   0.644  -0.653
  840DIO    H2047040   4.062   0.689  -0.711
  841DIO     F147041   4.495  -0.654   8.447
  841DIO     C147042   4.417  -0.562   8.508
  841DIO     C247043   4.273  -0.570   8.492
  841DIO     C347044   4.184  -0.470   8.556
  841DIO     C447045   4.250  -0.364   8.636
  841DIO     C547046   4.394  -0.359   8.650
  841DIO     F247047   4.450  -0.264   8.728
  841DIO     C647048   4.478  -0.458   8.586
  841DIO     F347049   4.612  -0.451   8.599
  841DIO     C747050   4.038  -0.475   8.540
  841DIO     C847051   3.961  -0.355   8.499
  841DIO     C947052   3.816  -0.360   8.484
  841DIO    C1047053   3.744  -0.481   8.520
  841DIO    C1147054   3.816  -0.602   8.554
  841DIO    C1247055   3.960  -0.597   8.566
  841DIO     F447056   4.025  -0.710   8.603
  841DIO     O147057   3.611  -0.486   8.482
  841DIO    C1347058   3.517  -0.552   8.560
  841DIO     O247059   3.516  -0.588   8.681
  841DIO    C1447060   3.388  -0.567   8.492
  841DIO    C1547061   3.321  -0.453   8.425
  841DIO     F547062   3.384  -0.333   8.416
  841DIO    C1647063   3.191  -0.464   8.363
  841DIO    C1747064   3.115  -0.588   8.371
  841DIO    C1847065   3.184  -0.706   8.422
  841DIO    C1947066   3.315  -0.695   8.482
  841DIO     F647067   3.378  -0.811   8.514
  841DIO    C2047068   2.974  -0.598   8.317
  841DIO     O347069   2.904  -0.473   8.315
  841DIO    C2147070   2.861  -0.432   8.444
  841DIO    C2247071   2.772  -0.538   8.508
  841DIO    C2347072   2.853  -0.668   8.510
  841DIO     O447073   2.897  -0.702   8.378
  841DIO    C2447074   2.639  -0.560   8.432
  841DIO    C2547075   2.548  -0.437   8.419
  841DIO    C2647076   2.510  -0.375   8.553
  841DIO     H147077   4.231  -0.650   8.433
  841DIO     H247078   4.189  -0.294   8.693
  841DIO     H347079   4.012  -0.264   8.474
  841DIO     H447080   3.761  -0.275   8.446
  841DIO     H547081   3.762  -0.693   8.576
  841DIO     H647082   3.153  -0.379   8.307
  841DIO     H747083   3.141  -0.805   8.410
  841DIO     H847084   2.984  -0.627   8.212
  841DIO     H947085   2.947  -0.411   8.507
  841DIO    H1047086   2.808  -0.337   8.433
  841DIO    H1147087   2.749  -0.509   8.611
  841DIO    H1247088   2.792  -0.751   8.547
  841DIO    H1347089   2.939  -0.659   8.577
  841DIO    H1447090   2.659  -0.597   8.331
  841DIO    H1547091   2.583  -0.639   8.483
  841DIO    H1647092   2.596  -0.361   8.356
  841DIO    H1747093   2.457  -0.467   8.367
  841DIO    H1847094   2.466  -0.449   8.620
  841DIO    H1947095   2.597  -0.330   8.603
  841DIO    H2047096   2.436  -0.295   8.538
  842DIO     F147097   7.496   5.566   7.702
  842DIO     C147098   7.418   5.573   7.592
  842DIO     C247099   7.274   5.564   7.606
  842DIO     C347100   7.185   5.569   7.488
  842DIO     C447101   7.251   5.587   7.356
  842DIO     C547102   7.395   5.596   7.345
  842DIO     F247103   7.450   5.616   7.224
  842DIO     C647104   7.479   5.590   7.462
  842DIO     F347105   7.612   5.598   7.450
  842DIO     C747106   7.039   5.558   7.500
  842DIO     C847107   6.962   5.463   7.417
  842DIO     C947108   6.817   5.453   7.428
  842DIO    C1047109   6.744   5.544   7.515
  842DIO    C1147110   6.817   5.634   7.603
  842DIO    C1247111   6.961   5.642   7.594
  842DIO     F447112   7.026   5.730   7.673
  842DIO     O147113   6.612   5.513   7.539
  842DIO    C1347114   6.518   5.614   7.557
  842DIO     O247115   6.517   5.736   7.529
  842DIO    C1447116   6.389   5.562   7.604
  842DIO    C1547117   6.322   5.447   7.538
  842DIO     F547118   6.385   5.381   7.439
  842DIO    C1647119   6.191   5.399   7.578
  842DIO    C1747120   6.116   5.468   7.682
  842DIO    C1847121   6.184   5.570   7.760
  842DIO    C1947122   6.316   5.618   7.720
  842DIO     F647123   6.379   5.702   7.805
  842DIO    C2047124   5.975   5.426   7.717
  842DIO     O347125   5.905   5.362   7.610
  842DIO    C2147126   5.862   5.453   7.510
  842DIO    C2247127   5.773   5.562   7.571
  842DIO    C2347128   5.853   5.628   7.683
  842DIO     O447129   5.898   5.530   7.777
  842DIO    C2447130   5.640   5.506   7.627
  842DIO    C2547131   5.549   5.435   7.527
  842DIO    C2647132   5.511   5.520   7.407
  842DIO     H147133   7.231   5.553   7.705
  842DIO     H247134   7.190   5.601   7.267
  842DIO     H347135   7.013   5.396   7.350
  842DIO     H447136   6.762   5.378   7.374
  842DIO     H547137   6.762   5.697   7.671
  842DIO     H647138   6.153   5.309   7.532
  842DIO     H747139   6.142   5.609   7.851
  842DIO     H847140   5.985   5.349   7.795
  842DIO     H947141   5.948   5.498   7.461
  842DIO    H1047142   5.809   5.397   7.433
  842DIO    H1147143   5.750   5.637   7.495
  842DIO    H1247144   5.792   5.701   7.736
  842DIO    H1347145   5.940   5.682   7.642
  842DIO    H1447146   5.660   5.437   7.710
  842DIO    H1547147   5.583   5.590   7.671
  842DIO    H1647148   5.597   5.342   7.492
  842DIO    H1747149   5.457   5.404   7.579
  842DIO    H1847150   5.467   5.615   7.438
  842DIO    H1947151   5.597   5.541   7.343
  842DIO    H2047152   5.437   5.467   7.346
  843DIO     F147153   7.447   2.722   4.443
  843DIO     C147154   7.369   2.817   4.387
  843DIO     C247155   7.225   2.800   4.387
  843DIO     C347156   7.136   2.900   4.324
  843DIO     C447157   7.202   3.019   4.265
  843DIO     C547158   7.346   3.034   4.266
  843DIO     F247159   7.401   3.145   4.214
  843DIO     C647160   7.430   2.933   4.327
  843DIO     F347161   7.564   2.948   4.327
  843DIO     C747162   6.990   2.884   4.322
  843DIO     C847163   6.913   2.899   4.197
  843DIO     C947164   6.768   2.884   4.195
  843DIO    C1047165   6.695   2.864   4.319
  843DIO    C1147166   6.768   2.842   4.443
  843DIO    C1247167   6.912   2.854   4.444
  843DIO     F447168   6.977   2.839   4.562
  843DIO     O147169   6.563   2.827   4.307
  843DIO    C1347170   6.469   2.869   4.400
  843DIO     O247171   6.468   2.961   4.486
  843DIO    C1447172   6.340   2.801   4.384
  843DIO    C1547173   6.273   2.790   4.252
  843DIO     F547174   6.336   2.834   4.141
  843DIO    C1647175   6.143   2.729   4.235
  843DIO    C1747176   6.067   2.683   4.351
  843DIO    C1847177   6.136   2.677   4.479
  843DIO    C1947178   6.267   2.736   4.496
  843DIO     F647179   6.330   2.714   4.614
  843DIO    C2047180   5.926   2.630   4.336
  843DIO     O347181   5.856   2.682   4.223
  843DIO    C2147182   5.813   2.816   4.242
  843DIO    C2247183   5.724   2.828   4.365
  843DIO    C2347184   5.805   2.773   4.483
  843DIO     O447185   5.849   2.640   4.456
  843DIO    C2447186   5.591   2.750   4.352
  843DIO    C2547187   5.500   2.792   4.236
  843DIO    C2647188   5.462   2.939   4.238
  843DIO     H147189   7.182   2.712   4.434
  843DIO     H247190   7.141   3.100   4.226
  843DIO     H347191   6.964   2.916   4.104
  843DIO     H447192   6.713   2.886   4.102
  843DIO     H547193   6.714   2.821   4.534
  843DIO     H647194   6.104   2.716   4.135
  843DIO     H747195   6.093   2.623   4.563
  843DIO     H847196   5.936   2.522   4.317
  843DIO     H947197   5.899   2.883   4.251
  843DIO    H1047198   5.760   2.848   4.151
  843DIO    H1147199   5.701   2.933   4.384
  843DIO    H1247200   5.743   2.770   4.574
  843DIO    H1347201   5.891   2.837   4.505
  843DIO    H1447202   5.611   2.642   4.341
  843DIO    H1547203   5.535   2.761   4.445
  843DIO    H1647204   5.548   2.768   4.140
  843DIO    H1747205   5.409   2.732   4.240
  843DIO    H1847206   5.418   2.967   4.334
  843DIO    H1947207   5.548   3.004   4.220
  843DIO    H2047208   5.388   2.960   4.160
  844DIO     F147209   9.320   4.041   4.079
  844DIO     C147210   9.242   4.078   4.182
  844DIO     C247211   9.098   4.081   4.165
  844DIO     C347212   9.009   4.123   4.276
  844DIO     C447213   9.075   4.159   4.404
  844DIO     C547214   9.219   4.155   4.418
  844DIO     F247215   9.274   4.185   4.537
  844DIO     C647216   9.303   4.114   4.308
  844DIO     F347217   9.436   4.112   4.322
  844DIO     C747218   8.863   4.128   4.261
  844DIO     C847219   8.786   4.249   4.299
  844DIO     C947220   8.641   4.254   4.285
  844DIO    C1047221   8.568   4.136   4.241
  844DIO    C1147222   8.641   4.018   4.196
  844DIO    C1247223   8.785   4.015   4.208
  844DIO     F447224   8.850   3.903   4.170
  844DIO     O147225   8.436   4.154   4.207
  844DIO    C1347226   8.342   4.055   4.230
  844DIO     O247227   8.341   3.954   4.305
  844DIO    C1447228   8.213   4.084   4.167
  844DIO    C1547229   8.146   4.215   4.181
  844DIO     F547230   8.209   4.316   4.246
  844DIO    C1647231   8.015   4.244   4.125
  844DIO    C1747232   7.940   4.139   4.057
  844DIO    C1847233   8.008   4.014   4.027
  844DIO    C1947234   8.140   3.987   4.082
  844DIO     F647235   8.203   3.875   4.038
  844DIO    C2047236   7.799   4.164   4.008
  844DIO     O347237   7.729   4.265   4.081
  844DIO    C2147238   7.686   4.221   4.209
  844DIO    C2247239   7.597   4.097   4.197
  844DIO    C2347240   7.677   3.992   4.121
  844DIO     O447241   7.722   4.044   3.995
  844DIO    C2447242   7.464   4.125   4.123
  844DIO    C2547243   7.373   4.231   4.187
  844DIO    C2647244   7.335   4.201   4.331
  844DIO     H147245   9.055   4.052   4.070
  844DIO     H247246   9.014   4.182   4.491
  844DIO     H347247   8.837   4.337   4.334
  844DIO     H447248   8.586   4.344   4.305
  844DIO     H547249   8.586   3.933   4.159
  844DIO     H647250   7.977   4.345   4.132
  844DIO     H747251   7.966   3.942   3.959
  844DIO     H847252   7.809   4.203   3.907
  844DIO     H947253   7.772   4.199   4.273
  844DIO    H1047254   7.633   4.303   4.257
  844DIO    H1147255   7.574   4.058   4.297
  844DIO    H1247256   7.616   3.904   4.100
  844DIO    H1347257   7.764   3.959   4.180
  844DIO    H1447258   7.484   4.156   4.020
  844DIO    H1547259   7.407   4.032   4.117
  844DIO    H1647260   7.421   4.330   4.182
  844DIO    H1747261   7.281   4.238   4.127
  844DIO    H1847262   7.291   4.101   4.340
  844DIO    H1947263   7.421   4.207   4.397
  844DIO    H2047264   7.261   4.274   4.366
  845DIO     F147265   5.141   1.157   7.367
  845DIO     C147266   5.063   1.109   7.466
  845DIO     C247267   4.919   1.123   7.456
  845DIO     C347268   4.831   1.074   7.564
  845DIO     C447269   4.896   1.008   7.680
  845DIO     C547270   5.040   0.995   7.687
  845DIO     F247271   5.096   0.931   7.791
  845DIO     C647272   5.124   1.045   7.580
  845DIO     F347273   5.258   1.033   7.588
  845DIO     C747274   4.684   1.088   7.557
  845DIO     C847275   4.607   1.145   7.670
  845DIO     C947276   4.462   1.159   7.663
  845DIO    C1047277   4.390   1.107   7.549
  845DIO    C1147278   4.462   1.057   7.433
  845DIO    C1247279   4.606   1.046   7.439
  845DIO     F447280   4.671   0.994   7.332
  845DIO     O147281   4.258   1.145   7.538
  845DIO    C1347282   4.163   1.058   7.483
  845DIO     O247283   4.162   0.934   7.463
  845DIO    C1447284   4.034   1.124   7.459
  845DIO    C1547285   3.968   1.206   7.563
  845DIO     F547286   4.030   1.230   7.680
  845DIO    C1647287   3.837   1.266   7.544
  845DIO    C1747288   3.761   1.241   7.422
  845DIO    C1847289   3.830   1.175   7.312
  845DIO    C1947290   3.961   1.116   7.331
  845DIO     F647291   4.024   1.069   7.220
  845DIO    C2047292   3.620   1.293   7.405
  845DIO     O347293   3.551   1.312   7.529
  845DIO    C2147294   3.507   1.189   7.587
  845DIO    C2247295   3.418   1.112   7.490
  845DIO    C2347296   3.499   1.093   7.362
  845DIO     O447297   3.543   1.218   7.310
  845DIO    C2447298   3.285   1.184   7.458
  845DIO    C2547299   3.195   1.213   7.578
  845DIO    C2647300   3.156   1.089   7.658
  845DIO     H147301   4.877   1.171   7.369
  845DIO     H247302   4.835   0.961   7.757
  845DIO     H347303   4.659   1.183   7.757
  845DIO     H447304   4.407   1.208   7.742
  845DIO     H547305   4.408   1.024   7.346
  845DIO     H647306   3.799   1.332   7.621
  845DIO     H747307   3.787   1.173   7.212
  845DIO     H847308   3.630   1.393   7.362
  845DIO     H947309   3.594   1.129   7.616
  845DIO    H1047310   3.454   1.213   7.679
  845DIO    H1147311   3.396   1.013   7.532
  845DIO    H1247312   3.438   1.045   7.284
  845DIO    H1347313   3.585   1.027   7.379
  845DIO    H1447314   3.305   1.280   7.408
  845DIO    H1547315   3.229   1.123   7.387
  845DIO    H1647316   3.242   1.286   7.645
  845DIO    H1747317   3.103   1.261   7.542
  845DIO    H1847318   3.112   1.013   7.593
  845DIO    H1947319   3.243   1.046   7.709
  845DIO    H2047320   3.083   1.115   7.734
  846DIO     F147321   4.670   8.942   9.875
  846DIO     C147322   4.593   8.868   9.794
  846DIO     C247323   4.449   8.871   9.811
  846DIO     C347324   4.360   8.790   9.725
  846DIO     C447325   4.425   8.707   9.621
  846DIO     C547326   4.570   8.705   9.606
  846DIO     F247327   4.625   8.632   9.508
  846DIO     C647328   4.653   8.786   9.692
  846DIO     F347329   4.787   8.782   9.678
  846DIO     C747330   4.214   8.791   9.741
  846DIO     C847331   4.136   8.665   9.752
  846DIO     C947332   3.992   8.666   9.767
  846DIO    C1047333   3.919   8.792   9.762
  846DIO    C1147334   3.992   8.918   9.758
  846DIO    C1247335   4.136   8.916   9.746
  846DIO     F447336   4.201   9.034   9.737
  846DIO     O147337   3.787   8.788   9.801
  846DIO    C1347338   3.692   8.870   9.741
  846DIO     O247339   3.692   8.935   9.633
  846DIO    C1447340   3.563   8.868   9.810
  846DIO    C1547341   3.497   8.741   9.848
  846DIO     F547342   3.560   8.624   9.827
  846DIO    C1647343   3.366   8.737   9.911
  846DIO    C1747344   3.290   8.860   9.933
  846DIO    C1847345   3.359   8.987   9.912
  846DIO    C1947346   3.491   8.991   9.851
  846DIO     F647347   3.553   9.111   9.849
  846DIO    C2047348   3.150   8.856   9.987
  846DIO     O347349   3.080   8.734   9.959
  846DIO    C2147350   3.036   8.726   9.824
  846DIO    C2247351   2.947   8.844   9.788
  846DIO    C2347352   3.028   8.971   9.818
  846DIO     O447353   3.072   8.972   9.953
  846DIO    C2447354   2.815   8.847   9.867
  846DIO    C2547355   2.724   8.725   9.849
  846DIO    C2647356   2.686   8.697   9.705
  846DIO     H147357   4.406   8.935   9.887
  846DIO     H247358   4.365   8.653   9.549
  846DIO     H347359   4.188   8.570   9.754
  846DIO     H447360   3.937   8.575   9.784
  846DIO     H547361   3.937   9.011   9.760
  846DIO     H647362   3.328   8.641   9.944
  846DIO     H747363   3.316   9.080   9.948
  846DIO     H847364   3.159   8.859  10.097
  846DIO     H947365   3.123   8.721   9.757
  846DIO    H1047366   2.984   8.631   9.812
  846DIO    H1147367   2.925   8.842   9.681
  846DIO    H1247368   2.967   9.060   9.802
  846DIO    H1347369   3.114   8.979   9.750
  846DIO    H1447370   2.835   8.859   9.974
  846DIO    H1547371   2.758   8.936   9.837
  846DIO    H1647372   2.771   8.636   9.892
  846DIO    H1747373   2.632   8.741   9.907
  846DIO    H1847374   2.642   8.786   9.658
  846DIO    H1947375   2.772   8.666   9.645
  846DIO    H2047376   2.612   8.616   9.700
  847DIO     F147377   1.944   6.397   7.335
  847DIO     C147378   1.866   6.341   7.241
  847DIO     C247379   1.722   6.341   7.257
  847DIO     C347380   1.633   6.279   7.157
  847DIO     C447381   1.699   6.220   7.038
  847DIO     C547382   1.843   6.221   7.023
  847DIO     F247383   1.898   6.169   6.912
  847DIO     C647384   1.927   6.282   7.124
  847DIO     F347385   2.060   6.281   7.110
  847DIO     C747386   1.487   6.277   7.173
  847DIO     C847387   1.410   6.152   7.158
  847DIO     C947388   1.265   6.150   7.173
  847DIO    C1047389   1.192   6.274   7.193
  847DIO    C1147390   1.265   6.397   7.216
  847DIO    C1247391   1.409   6.399   7.203
  847DIO     F447392   1.474   6.516   7.219
  847DIO     O147393   1.060   6.262   7.230
  847DIO    C1347394   0.966   6.355   7.189
  847DIO     O247395   0.965   6.440   7.096
  847DIO    C1447396   0.836   6.339   7.257
  847DIO    C1547397   0.770   6.207   7.267
  847DIO     F547398   0.833   6.096   7.223
  847DIO    C1647399   0.639   6.189   7.328
  847DIO    C1747400   0.564   6.305   7.375
  847DIO    C1847401   0.632   6.433   7.381
  847DIO    C1947402   0.764   6.450   7.322
  847DIO     F647403   0.826   6.568   7.344
  847DIO    C2047404   0.423   6.290   7.427
  847DIO     O347405   0.353   6.177   7.375
  847DIO    C2147406   0.309   6.196   7.241
  847DIO    C2247407   0.221   6.320   7.230
  847DIO    C2347408   0.301   6.437   7.285
  847DIO     O447409   0.346   6.410   7.418
  847DIO    C2447410   0.088   6.306   7.307
  847DIO    C2547411  -0.003   6.190   7.265
  847DIO    C2647412  -0.041   6.193   7.118
  847DIO     H147413   1.679   6.388   7.346
  847DIO     H247414   1.638   6.181   6.956
  847DIO     H347415   1.461   6.058   7.140
  847DIO     H447416   1.210   6.057   7.170
  847DIO     H547417   1.210   6.489   7.236
  847DIO     H647418   0.601   6.089   7.340
  847DIO     H747419   0.589   6.517   7.434
  847DIO     H847420   0.433   6.270   7.535
  847DIO     H947421   0.396   6.205   7.174
  847DIO    H1047422   0.257   6.106   7.209
  847DIO    H1147423   0.198   6.339   7.124
  847DIO    H1247424   0.240   6.528   7.288
  847DIO    H1347425   0.387   6.459   7.221
  847DIO    H1447426   0.108   6.295   7.415
  847DIO    H1547427   0.031   6.399   7.296
  847DIO    H1647428   0.044   6.094   7.288
  847DIO    H1747429  -0.095   6.194   7.325
  847DIO    H1847430  -0.085   6.289   7.090
  847DIO    H1947431   0.045   6.174   7.053
  847DIO    H2047432  -0.115   6.115   7.097
  848DIO     F147433   6.134   1.515   7.263
  848DIO     C147434   6.057   1.589   7.182
  848DIO     C247435   5.913   1.573   7.187
  848DIO     C347436   5.824   1.651   7.098
  848DIO     C447437   5.889   1.748   7.006
  848DIO     C547438   6.034   1.762   7.003
  848DIO     F247439   6.089   1.854   6.922
  848DIO     C647440   6.117   1.684   7.091
  848DIO     F347441   6.251   1.697   7.087
  848DIO     C747442   5.678   1.636   7.101
  848DIO     C847443   5.600   1.613   6.976
  848DIO     C947444   5.456   1.598   6.979
  848DIO    C1047445   5.383   1.615   7.103
  848DIO    C1147446   5.456   1.629   7.228
  848DIO    C1247447   5.600   1.642   7.226
  848DIO     F447448   5.665   1.660   7.343
  848DIO     O147449   5.251   1.576   7.102
  848DIO    C1347450   5.156   1.643   7.180
  848DIO     O247451   5.156   1.756   7.235
  848DIO    C1447452   5.027   1.573   7.184
  848DIO    C1547453   4.961   1.525   7.061
  848DIO     F547454   5.024   1.535   6.941
  848DIO    C1647455   4.830   1.462   7.062
  848DIO    C1747456   4.754   1.450   7.186
  848DIO    C1847457   4.823   1.482   7.310
  848DIO    C1947458   4.955   1.543   7.309
  848DIO     F647459   5.017   1.556   7.428
  848DIO    C2047460   4.614   1.396   7.187
  848DIO     O347461   4.544   1.413   7.063
  848DIO    C2147462   4.500   1.547   7.043
  848DIO    C2247463   4.411   1.593   7.158
  848DIO    C2347464   4.492   1.575   7.286
  848DIO     O447465   4.536   1.440   7.299
  848DIO    C2447466   4.279   1.515   7.167
  848DIO    C2547467   4.188   1.522   7.044
  848DIO    C2647468   4.150   1.664   7.004
  848DIO     H147469   5.870   1.502   7.257
  848DIO     H247470   5.829   1.815   6.946
  848DIO     H347471   5.652   1.603   6.882
  848DIO     H447472   5.401   1.574   6.889
  848DIO     H547473   5.401   1.636   7.321
  848DIO     H647474   4.792   1.421   6.969
  848DIO     H747475   4.780   1.455   7.406
  848DIO     H847476   4.623   1.287   7.199
  848DIO     H947477   4.587   1.613   7.032
  848DIO    H1047478   4.448   1.551   6.947
  848DIO    H1147479   4.389   1.700   7.146
  848DIO    H1247480   4.431   1.598   7.374
  848DIO    H1347481   4.578   1.642   7.289
  848DIO    H1447482   4.299   1.409   7.188
  848DIO    H1547483   4.222   1.553   7.253
  848DIO    H1647484   4.235   1.472   6.959
  848DIO    H1747485   4.096   1.466   7.065
  848DIO    H1847486   4.106   1.718   7.088
  848DIO    H1947487   4.236   1.720   6.968
  848DIO    H2047488   4.076   1.661   6.923
  849DIO     F147489   5.586   4.297   7.922
  849DIO     C147490   5.508   4.404   7.947
  849DIO     C247491   5.364   4.391   7.936
  849DIO     C347492   5.276   4.507   7.960
  849DIO     C447493   5.341   4.634   7.999
  849DIO     C547494   5.485   4.644   8.010
  849DIO     F247495   5.541   4.760   8.050
  849DIO     C647496   5.569   4.529   7.985
  849DIO     F347497   5.703   4.540   7.994
  849DIO     C747498   5.129   4.497   7.948
  849DIO     C847499   5.052   4.595   7.867
  849DIO     C947500   4.907   4.585   7.855
  849DIO    C1047501   4.835   4.485   7.931
  849DIO    C1147502   4.907   4.383   8.005
  849DIO    C1247503   5.051   4.391   8.015
  849DIO     F447504   5.116   4.299   8.088
  849DIO     O147505   4.703   4.466   7.897
  849DIO    C1347506   4.608   4.432   7.993
  849DIO     O247507   4.607   4.440   8.119
  849DIO    C1447508   4.479   4.394   7.934
  849DIO    C1547509   4.413   4.478   7.832
  849DIO     F547510   4.475   4.586   7.782
  849DIO    C1647511   4.282   4.446   7.777
  849DIO    C1747512   4.206   4.332   7.829
  849DIO    C1847513   4.275   4.239   7.917
  849DIO    C1947514   4.406   4.270   7.970
  849DIO     F647515   4.469   4.173   8.040
  849DIO    C2047516   4.065   4.304   7.781
  849DIO     O347517   3.996   4.420   7.736
  849DIO    C2147518   3.952   4.504   7.842
  849DIO    C2247519   3.863   4.427   7.939
  849DIO    C2347520   3.944   4.306   7.986
  849DIO     O447521   3.988   4.228   7.875
  849DIO    C2447522   3.730   4.380   7.875
  849DIO    C2547523   3.640   4.491   7.821
  849DIO    C2647524   3.601   4.595   7.925
  849DIO     H147525   5.322   4.296   7.909
  849DIO     H247526   5.280   4.720   8.028
  849DIO     H347527   5.104   4.672   7.812
  849DIO     H447528   4.852   4.651   7.790
  849DIO     H547529   4.853   4.305   8.057
  849DIO     H647530   4.244   4.506   7.696
  849DIO     H747531   4.232   4.142   7.941
  849DIO     H847532   4.075   4.240   7.693
  849DIO     H947533   4.039   4.546   7.895
  849DIO    H1047534   3.899   4.589   7.799
  849DIO    H1147535   3.841   4.489   8.026
  849DIO    H1247536   3.883   4.241   8.050
  849DIO    H1347537   4.030   4.337   8.046
  849DIO    H1447538   3.750   4.309   7.794
  849DIO    H1547539   3.674   4.324   7.951
  849DIO    H1647540   3.687   4.540   7.735
  849DIO    H1747541   3.548   4.444   7.783
  849DIO    H1847542   3.557   4.549   8.013
  849DIO    H1947543   3.688   4.654   7.956
  849DIO    H2047544   3.528   4.664   7.883
  850DIO     F147545   3.946   0.718   7.722
  850DIO     C147546   3.869   0.677   7.824
  850DIO     C247547   3.724   0.690   7.814
  850DIO     C347548   3.636   0.647   7.924
  850DIO     C447549   3.701   0.588   8.044
  850DIO     C547550   3.845   0.576   8.051
  850DIO     F247551   3.901   0.518   8.160
  850DIO     C647552   3.929   0.619   7.942
  850DIO     F347553   4.063   0.608   7.951
  850DIO     C747554   3.489   0.661   7.916
  850DIO     C847555   3.412   0.725   8.025
  850DIO     C947556   3.267   0.738   8.018
  850DIO    C1047557   3.195   0.680   7.907
  850DIO    C1147558   3.267   0.623   7.794
  850DIO    C1247559   3.411   0.612   7.801
  850DIO     F447560   3.476   0.554   7.698
  850DIO     O147561   3.063   0.717   7.894
  850DIO    C1347562   2.968   0.627   7.845
  850DIO     O247563   2.967   0.502   7.832
  850DIO    C1447564   2.839   0.691   7.817
  850DIO    C1547565   2.773   0.779   7.916
  850DIO     F547566   2.835   0.810   8.031
  850DIO    C1647567   2.642   0.838   7.893
  850DIO    C1747568   2.566   0.805   7.772
  850DIO    C1847569   2.635   0.733   7.666
  850DIO    C1947570   2.767   0.676   7.689
  850DIO     F647571   2.829   0.623   7.581
  850DIO    C2047572   2.425   0.857   7.752
  850DIO     O347573   2.356   0.883   7.875
  850DIO    C2147574   2.312   0.764   7.940
  850DIO    C2247575   2.223   0.681   7.848
  850DIO    C2347576   2.304   0.654   7.721
  850DIO     O447577   2.348   0.776   7.662
  850DIO    C2447578   2.090   0.751   7.812
  850DIO    C2547579   2.000   0.787   7.930
  850DIO    C2647580   1.961   0.668   8.017
  850DIO     H147581   3.682   0.732   7.724
  850DIO     H247582   3.641   0.546   8.123
  850DIO     H347583   3.464   0.768   8.111
  850DIO     H447584   3.212   0.792   8.094
  850DIO     H547585   3.213   0.584   7.709
  850DIO     H647586   2.604   0.908   7.966
  850DIO     H747587   2.592   0.725   7.567
  850DIO     H847588   2.435   0.954   7.703
  850DIO     H947589   2.399   0.706   7.973
  850DIO    H1047590   2.259   0.793   8.031
  850DIO    H1147591   2.201   0.585   7.896
  850DIO    H1247592   2.243   0.602   7.647
  850DIO    H1347593   2.390   0.590   7.742
  850DIO    H1447594   2.110   0.843   7.756
  850DIO    H1547595   2.034   0.686   7.744
  850DIO    H1647596   2.047   0.864   7.993
  850DIO    H1747597   1.908   0.833   7.891
  850DIO    H1847598   1.917   0.588   7.957
  850DIO    H1947599   2.048   0.628   8.070
  850DIO    H2047600   1.888   0.699   8.092
  851DIO     F147601   8.669   0.071   5.109
  851DIO     C147602   8.591  -0.035   5.138
  851DIO     C247603   8.447  -0.018   5.142
  851DIO     C347604   8.358  -0.132   5.176
  851DIO     C447605   8.424  -0.262   5.202
  851DIO     C547606   8.568  -0.276   5.197
  851DIO     F247607   8.623  -0.397   5.218
  851DIO     C647608   8.652  -0.163   5.165
  851DIO     F347609   8.786  -0.177   5.161
  851DIO     C747610   8.212  -0.117   5.182
  851DIO     C847611   8.135  -0.164   5.299
  851DIO     C947612   7.990  -0.150   5.305
  851DIO    C1047613   7.917  -0.098   5.191
  851DIO    C1147614   7.990  -0.044   5.077
  851DIO    C1247615   8.134  -0.056   5.073
  851DIO     F447616   8.199  -0.010   4.964
  851DIO     O147617   7.785  -0.065   5.212
  851DIO    C1347618   7.691  -0.081   5.111
  851DIO     O247619   7.690  -0.148   5.005
  851DIO    C1447620   7.562  -0.020   5.145
  851DIO    C1547621   7.495  -0.044   5.275
  851DIO     F547622   7.558  -0.116   5.370
  851DIO    C1647623   7.365   0.010   5.307
  851DIO    C1747624   7.289   0.085   5.208
  851DIO    C1847625   7.358   0.125   5.086
  851DIO    C1947626   7.489   0.072   5.054
  851DIO     F647627   7.552   0.124   4.946
  851DIO    C2047628   7.148   0.132   5.236
  851DIO     O347629   7.078   0.052   5.332
  851DIO    C2147630   7.035  -0.073   5.278
  851DIO    C2247631   6.946  -0.051   5.156
  851DIO    C2347632   7.027   0.033   5.057
  851DIO     O447633   7.071   0.154   5.118
  851DIO    C2447634   6.813   0.021   5.190
  851DIO    C2547635   6.722  -0.051   5.290
  851DIO    C2647636   6.684  -0.192   5.249
  851DIO     H147637   8.404   0.079   5.120
  851DIO     H247638   8.363  -0.351   5.218
  851DIO     H347639   8.186  -0.205   5.385
  851DIO     H447640   7.935  -0.177   5.394
  851DIO     H547641   7.936  -0.000   4.995
  851DIO     H647642   7.326  -0.005   5.408
  851DIO     H747643   7.315   0.198   5.019
  851DIO     H847644   7.158   0.231   5.283
  851DIO     H947645   7.121  -0.134   5.252
  851DIO    H1047646   6.982  -0.127   5.357
  851DIO    H1147647   6.923  -0.147   5.110
  851DIO    H1247648   6.965   0.060   4.970
  851DIO    H1347649   7.113  -0.023   5.019
  851DIO    H1447650   6.833   0.122   5.228
  851DIO    H1547651   6.757   0.034   5.096
  851DIO    H1647652   6.770  -0.053   5.389
  851DIO    H1747653   6.631   0.008   5.302
  851DIO    H1847654   6.640  -0.194   5.149
  851DIO    H1947655   6.770  -0.259   5.250
  851DIO    H2047656   6.610  -0.233   5.319
  852DIO     F147657   5.346   8.608   2.653
  852DIO     C147658   5.268   8.525   2.724
  852DIO     C247659   5.124   8.541   2.721
  852DIO     C347660   5.035   8.453   2.800
  852DIO     C447661   5.101   8.346   2.879
  852DIO     C547662   5.245   8.332   2.881
  852DIO     F247663   5.300   8.231   2.951
  852DIO     C647664   5.329   8.420   2.803
  852DIO     F347665   5.462   8.406   2.806
  852DIO     C747666   4.889   8.469   2.799
  852DIO     C847667   4.812   8.476   2.926
  852DIO     C947668   4.667   8.491   2.925
  852DIO    C1047669   4.594   8.490   2.799
  852DIO    C1147670   4.667   8.491   2.673
  852DIO    C1247671   4.811   8.478   2.674
  852DIO     F447672   4.876   8.474   2.556
  852DIO     O147673   4.462   8.528   2.805
  852DIO    C1347674   4.368   8.471   2.720
  852DIO     O247675   4.367   8.365   2.652
  852DIO    C1447676   4.239   8.541   2.724
  852DIO    C1547677   4.172   8.574   2.852
  852DIO     F547678   4.235   8.549   2.969
  852DIO    C1647679   4.041   8.637   2.859
  852DIO    C1747680   3.966   8.663   2.737
  852DIO    C1847681   4.034   8.647   2.610
  852DIO    C1947682   4.166   8.586   2.603
  852DIO     F647683   4.229   8.587   2.484
  852DIO    C2047684   3.825   8.717   2.743
  852DIO     O347685   3.755   8.685   2.863
  852DIO    C2147686   3.712   8.550   2.867
  852DIO    C2247687   3.623   8.518   2.748
  852DIO    C2347688   3.703   8.552   2.622
  852DIO     O447689   3.748   8.687   2.626
  852DIO    C2447690   3.490   8.597   2.748
  852DIO    C2547691   3.399   8.575   2.869
  852DIO    C2647692   3.361   8.429   2.892
  852DIO     H147693   5.081   8.620   2.660
  852DIO     H247694   5.040   8.272   2.931
  852DIO     H347695   4.863   8.475   3.021
  852DIO     H447696   4.612   8.505   3.017
  852DIO     H547697   4.612   8.495   2.580
  852DIO     H647698   4.003   8.666   2.956
  852DIO     H747699   3.992   8.685   2.518
  852DIO     H847700   3.835   8.827   2.743
  852DIO     H947701   3.798   8.483   2.870
  852DIO    H1047702   3.659   8.534   2.962
  852DIO    H1147703   3.600   8.411   2.747
  852DIO    H1247704   3.642   8.539   2.532
  852DIO    H1347705   3.790   8.485   2.612
  852DIO    H1447706   3.510   8.704   2.740
  852DIO    H1547707   3.433   8.569   2.658
  852DIO    H1647708   3.447   8.615   2.960
  852DIO    H1747709   3.307   8.633   2.855
  852DIO    H1847710   3.317   8.386   2.802
  852DIO    H1947711   3.447   8.369   2.921
  852DIO    H2047712   3.287   8.422   2.973
  853DIO     F147713   3.134  10.799   8.110
  853DIO     C147714   3.056  10.705   8.166
  853DIO     C247715   2.912  10.722   8.166
  853DIO     C347716   2.823  10.621   8.229
  853DIO     C447717   2.889  10.503   8.289
  853DIO     C547718   3.033  10.488   8.288
  853DIO     F247719   3.089  10.377   8.340
  853DIO     C647720   3.117  10.588   8.227
  853DIO     F347721   3.251  10.574   8.227
  853DIO     C747722   2.677  10.637   8.231
  853DIO     C847723   2.600  10.623   8.357
  853DIO     C947724   2.455  10.638   8.359
  853DIO    C1047725   2.383  10.658   8.234
  853DIO    C1147726   2.455  10.680   8.111
  853DIO    C1247727   2.599  10.667   8.109
  853DIO     F447728   2.664  10.683   7.992
  853DIO     O147729   2.250  10.695   8.246
  853DIO    C1347730   2.156  10.653   8.153
  853DIO     O247731   2.155  10.560   8.068
  853DIO    C1447732   2.027  10.721   8.169
  853DIO    C1547733   1.960  10.732   8.301
  853DIO     F547734   2.023  10.688   8.412
  853DIO    C1647735   1.830  10.793   8.318
  853DIO    C1747736   1.754  10.839   8.202
  853DIO    C1847737   1.823  10.845   8.074
  853DIO    C1947738   1.954  10.785   8.057
  853DIO     F647739   2.017  10.807   7.940
  853DIO    C2047740   1.613  10.892   8.217
  853DIO     O347741   1.543  10.840   8.331
  853DIO    C2147742   1.500  10.706   8.312
  853DIO    C2247743   1.411  10.694   8.188
  853DIO    C2347744   1.492  10.749   8.071
  853DIO     O447745   1.536  10.882   8.097
  853DIO    C2447746   1.278  10.772   8.202
  853DIO    C2547747   1.187  10.730   8.318
  853DIO    C2647748   1.149  10.583   8.316
  853DIO     H147749   2.870  10.810   8.119
  853DIO     H247750   2.828  10.422   8.328
  853DIO     H347751   2.651  10.606   8.450
  853DIO     H447752   2.400  10.636   8.452
  853DIO     H547753   2.401  10.700   8.019
  853DIO     H647754   1.792  10.806   8.419
  853DIO     H747755   1.780  10.898   7.990
  853DIO     H847756   1.623  10.999   8.236
  853DIO     H947757   1.586  10.639   8.303
  853DIO    H1047758   1.447  10.674   8.402
  853DIO    H1147759   1.388  10.589   8.169
  853DIO    H1247760   1.431  10.751   7.980
  853DIO    H1347761   1.578  10.684   8.049
  853DIO    H1447762   1.298  10.879   8.212
  853DIO    H1547763   1.222  10.760   8.108
  853DIO    H1647764   1.235  10.754   8.414
  853DIO    H1747765   1.096  10.790   8.313
  853DIO    H1847766   1.105  10.555   8.219
  853DIO    H1947767   1.236  10.518   8.334
  853DIO    H2047768   1.075  10.562   8.394
  854DIO     F147769  10.592   1.595  10.427
  854DIO     C147770  10.514   1.700  10.459
  854DIO     C247771  10.370   1.689  10.447
  854DIO     C347772  10.282   1.803  10.479
  854DIO     C447773  10.347   1.927  10.527
  854DIO     C547774  10.491   1.936  10.538
  854DIO     F247775  10.547   2.049  10.586
  854DIO     C647776  10.575   1.823  10.505
  854DIO     F347777  10.709   1.833  10.516
  854DIO     C747778  10.135   1.794  10.466
  854DIO     C847779  10.058   1.896  10.392
  854DIO     C947780   9.913   1.888  10.380
  854DIO    C1047781   9.841   1.782  10.449
  854DIO    C1147782   9.913   1.676  10.515
  854DIO    C1247783  10.057   1.683  10.526
  854DIO     F447784  10.122   1.586  10.593
  854DIO     O147785   9.709   1.766  10.413
  854DIO    C1347786   9.614   1.725  10.507
  854DIO     O247787   9.613   1.725  10.633
  854DIO    C1447788   9.485   1.692  10.446
  854DIO    C1547789   9.419   1.782  10.349
  854DIO     F547790   9.481   1.894  10.307
  854DIO    C1647791   9.288   1.754  10.293
  854DIO    C1747792   9.212   1.637  10.336
  854DIO    C1847793   9.281   1.538  10.418
  854DIO    C1947794   9.412   1.566  10.473
  854DIO     F647795   9.475   1.464  10.536
  854DIO    C2047796   9.071   1.612  10.287
  854DIO     O347797   9.002   1.732  10.249
  854DIO    C2147798   8.958   1.807  10.361
  854DIO    C2247799   8.869   1.724  10.453
  854DIO    C2347800   8.950   1.600  10.491
  854DIO     O447801   8.994   1.530  10.375
  854DIO    C2447802   8.736   1.681  10.386
  854DIO    C2547803   8.646   1.796  10.339
  854DIO    C2647804   8.607   1.893  10.450
  854DIO     H147805  10.328   1.595  10.413
  854DIO     H247806  10.286   2.010  10.561
  854DIO     H347807  10.110   1.977  10.342
  854DIO     H447808   9.858   1.958  10.319
  854DIO     H547809   9.859   1.595  10.562
  854DIO     H647810   9.250   1.820  10.215
  854DIO     H747811   9.238   1.440  10.435
  854DIO     H847812   9.081   1.554  10.194
  854DIO     H947813   9.045   1.846  10.416
  854DIO    H1047814   8.905   1.896  10.324
  854DIO    H1147815   8.847   1.780  10.544
  854DIO    H1247816   8.889   1.531  10.550
  854DIO    H1347817   9.036   1.627  10.553
  854DIO    H1447818   8.756   1.617  10.300
  854DIO    H1547819   8.680   1.620  10.457
  854DIO    H1647820   8.693   1.851  10.257
  854DIO    H1747821   8.554   1.752  10.298
  854DIO    H1847822   8.563   1.840  10.535
  854DIO    H1947823   8.694   1.950  10.485
  854DIO    H2047824   8.534   1.965  10.412
  855DIO     F147825  10.758   5.588   2.630
  855DIO     C147826  10.680   5.522   2.541
  855DIO     C247827  10.536   5.524   2.558
  855DIO     C347828  10.448   5.452   2.465
  855DIO     C447829  10.513   5.380   2.353
  855DIO     C547830  10.657   5.380   2.338
  855DIO     F247831  10.713   5.317   2.232
  855DIO     C647832  10.741   5.451   2.432
  855DIO     F347833  10.875   5.449   2.417
  855DIO     C747834  10.301   5.451   2.481
  855DIO     C847835  10.224   5.325   2.479
  855DIO     C947836  10.079   5.325   2.494
  855DIO    C1047837  10.007   5.450   2.501
  855DIO    C1147838  10.079   5.576   2.511
  855DIO    C1247839  10.223   5.576   2.498
  855DIO     F447840  10.288   5.694   2.502
  855DIO     O147841   9.875   5.442   2.540
  855DIO    C1347842   9.780   5.531   2.489
  855DIO     O247843   9.779   5.606   2.388
  855DIO    C1447844   9.651   5.521   2.558
  855DIO    C1547845   9.585   5.391   2.582
  855DIO     F547846   9.647   5.276   2.549
  855DIO    C1647847   9.454   5.380   2.644
  855DIO    C1747848   9.378   5.500   2.679
  855DIO    C1847849   9.447   5.628   2.671
  855DIO    C1947850   9.578   5.639   2.611
  855DIO     F647851   9.641   5.758   2.621
  855DIO    C2047852   9.237   5.491   2.733
  855DIO     O347853   9.168   5.372   2.692
  855DIO    C2147854   9.124   5.378   2.557
  855DIO    C2247855   9.035   5.500   2.533
  855DIO    C2347856   9.116   5.622   2.576
  855DIO     O447857   9.160   5.609   2.710
  855DIO    C2447858   8.902   5.494   2.612
  855DIO    C2547859   8.812   5.374   2.581
  855DIO    C2647860   8.773   5.362   2.435
  855DIO     H147861  10.494   5.580   2.641
  855DIO     H247862  10.452   5.334   2.276
  855DIO     H347863  10.276   5.230   2.471
  855DIO     H447864  10.024   5.232   2.501
  855DIO     H547865  10.025   5.668   2.522
  855DIO     H647866   9.416   5.282   2.667
  855DIO     H747867   9.404   5.717   2.716
  855DIO     H847868   9.247   5.482   2.842
  855DIO     H947869   9.211   5.380   2.490
  855DIO    H1047870   9.071   5.285   2.535
  855DIO    H1147871   9.013   5.508   2.426
  855DIO    H1247872   9.055   5.713   2.569
  855DIO    H1347873   9.202   5.637   2.509
  855DIO    H1447874   8.922   5.495   2.720
  855DIO    H1547875   8.846   5.586   2.591
  855DIO    H1647876   8.859   5.281   2.615
  855DIO    H1747877   8.720   5.385   2.641
  855DIO    H1847878   8.729   5.455   2.397
  855DIO    H1947879   8.860   5.337   2.373
  855DIO    H2047880   8.700   5.282   2.422
  856DIO     F147881   5.111   8.408   8.292
  856DIO     C147882   5.033   8.433   8.399
  856DIO     C247883   4.889   8.438   8.383
  856DIO     C347884   4.800   8.467   8.498
  856DIO     C447885   4.866   8.487   8.629
  856DIO     C547886   5.010   8.482   8.643
  856DIO     F247887   5.065   8.497   8.765
  856DIO     C647888   5.094   8.454   8.528
  856DIO     F347889   5.227   8.450   8.542
  856DIO     C747890   4.654   8.474   8.483
  856DIO     C847891   4.577   8.589   8.536
  856DIO     C947892   4.432   8.595   8.522
  856DIO    C1047893   4.359   8.483   8.465
  856DIO    C1147894   4.432   8.372   8.406
  856DIO    C1247895   4.576   8.367   8.417
  856DIO     F447896   4.641   8.260   8.366
  856DIO     O147897   4.227   8.506   8.433
  856DIO    C1347898   4.133   8.404   8.444
  856DIO     O247899   4.132   8.295   8.506
  856DIO    C1447900   4.004   8.440   8.385
  856DIO    C1547901   3.937   8.569   8.415
  856DIO     F547902   4.000   8.661   8.491
  856DIO    C1647903   3.806   8.604   8.362
  856DIO    C1747904   3.731   8.508   8.283
  856DIO    C1847905   3.799   8.388   8.238
  856DIO    C1947906   3.931   8.354   8.289
  856DIO     F647907   3.994   8.249   8.232
  856DIO    C2047908   3.590   8.539   8.237
  856DIO     O347909   3.520   8.631   8.321
  856DIO    C2147910   3.477   8.571   8.443
  856DIO    C2247911   3.388   8.450   8.416
  856DIO    C2347912   3.468   8.355   8.328
  856DIO     O447913   3.513   8.421   8.210
  856DIO    C2447914   3.255   8.487   8.346
  856DIO    C2547915   3.164   8.585   8.422
  856DIO    C2647916   3.126   8.537   8.561
  856DIO     H147917   4.846   8.421   8.285
  856DIO     H247918   4.805   8.499   8.718
  856DIO     H347919   4.628   8.672   8.581
  856DIO     H447920   4.377   8.683   8.553
  856DIO     H547921   4.377   8.291   8.359
  856DIO     H647922   3.768   8.704   8.381
  856DIO     H747923   3.757   8.324   8.161
  856DIO     H847924   3.600   8.590   8.140
  856DIO     H947925   3.563   8.543   8.504
  856DIO    H1047926   3.424   8.648   8.501
  856DIO    H1147927   3.365   8.400   8.511
  856DIO    H1247928   3.407   8.270   8.297
  856DIO    H1347929   3.555   8.315   8.382
  856DIO    H1447930   3.275   8.530   8.247
  856DIO    H1547931   3.198   8.395   8.329
  856DIO    H1647932   3.212   8.683   8.429
  856DIO    H1747933   3.072   8.599   8.363
  856DIO    H1847934   3.082   8.437   8.558
  856DIO    H1947935   3.212   8.535   8.628
  856DIO    H2047936   3.052   8.605   8.605
  857DIO     F147937   5.745   8.389  -0.607
  857DIO     C147938   5.668   8.385  -0.717
  857DIO     C247939   5.524   8.377  -0.702
  857DIO     C347940   5.435   8.370  -0.821
  857DIO     C447941   5.500   8.375  -0.953
  857DIO     C547942   5.645   8.383  -0.966
  857DIO     F247943   5.700   8.391  -1.088
  857DIO     C647944   5.728   8.388  -0.848
  857DIO     F347945   5.862   8.395  -0.861
  857DIO     C747946   5.289   8.361  -0.808
  857DIO     C847947   5.211   8.258  -0.881
  857DIO     C947948   5.067   8.249  -0.868
  857DIO    C1047949   4.994   8.348  -0.791
  857DIO    C1147950   5.067   8.446  -0.712
  857DIO    C1247951   5.211   8.453  -0.722
  857DIO     F447952   5.276   8.548  -0.652
  857DIO     O147953   4.862   8.320  -0.764
  857DIO    C1347954   4.767   8.421  -0.756
  857DIO     O247955   4.767   8.541  -0.796
  857DIO    C1447956   4.638   8.375  -0.704
  857DIO    C1547957   4.572   8.254  -0.758
  857DIO     F547958   4.635   8.178  -0.851
  857DIO    C1647959   4.441   8.210  -0.713
  857DIO    C1747960   4.365   8.289  -0.617
  857DIO    C1847961   4.434   8.398  -0.550
  857DIO    C1947962   4.566   8.441  -0.594
  857DIO     F647963   4.628   8.534  -0.518
  857DIO    C2047964   4.225   8.250  -0.578
  857DIO     O347965   4.155   8.176  -0.678
  857DIO    C2147966   4.111   8.257  -0.787
  857DIO    C2247967   4.022   8.371  -0.737
  857DIO    C2347968   4.103   8.448  -0.632
  857DIO     O447969   4.147   8.360  -0.529
  857DIO    C2447970   3.890   8.322  -0.675
  857DIO    C2547971   3.799   8.240  -0.768
  857DIO    C2647972   3.761   8.313  -0.896
  857DIO     H147973   5.481   8.375  -0.603
  857DIO     H247974   5.440   8.380  -1.043
  857DIO     H347975   5.263   8.184  -0.941
  857DIO     H447976   5.012   8.168  -0.915
  857DIO     H547977   5.012   8.516  -0.650
  857DIO     H647978   4.403   8.115  -0.751
  857DIO     H747979   4.391   8.446  -0.463
  857DIO     H847980   4.234   8.182  -0.493
  857DIO     H947981   4.198   8.297  -0.840
  857DIO    H1047982   4.059   8.193  -0.858
  857DIO    H1147983   4.000   8.438  -0.820
  857DIO    H1247984   4.042   8.526  -0.586
  857DIO    H1347985   4.189   8.498  -0.678
  857DIO    H1447986   3.910   8.261  -0.586
  857DIO    H1547987   3.833   8.409  -0.641
  857DIO    H1647988   3.846   8.145  -0.794
  857DIO    H1747989   3.707   8.215  -0.714
  857DIO    H1847990   3.717   8.411  -0.874
  857DIO    H1947991   3.847   8.328  -0.961
  857DIO    H2047992   3.687   8.254  -0.952
  858DIO     F147993   8.168   6.283  -0.322
  858DIO     C147994   8.091   6.355  -0.239
  858DIO     C247995   7.947   6.352  -0.255
  858DIO     C347996   7.858   6.432  -0.168
  858DIO     C447997   7.923   6.513  -0.063
  858DIO     C547998   8.068   6.514  -0.048
  858DIO     F247999   8.123   6.586   0.052
  858DIO     C648000   8.151   6.436  -0.135
  858DIO     F348001   8.285   6.439  -0.121
  858DIO     C748002   7.711   6.431  -0.184
  858DIO     C848003   7.634   6.557  -0.193
  858DIO     C948004   7.490   6.556  -0.208
  858DIO    C1048005   7.417   6.431  -0.205
  858DIO    C1148006   7.489   6.305  -0.204
  858DIO    C1248007   7.634   6.306  -0.192
  858DIO     F448008   7.698   6.188  -0.185
  858DIO     O148009   7.285   6.436  -0.244
  858DIO    C1348010   7.190   6.352  -0.186
  858DIO     O248011   7.189   6.285  -0.079
  858DIO    C1448012   7.061   6.355  -0.255
  858DIO    C1548013   6.995   6.483  -0.290
  858DIO     F548014   7.057   6.600  -0.267
  858DIO    C1648015   6.864   6.488  -0.353
  858DIO    C1748016   6.788   6.366  -0.377
  858DIO    C1848017   6.857   6.239  -0.359
  858DIO    C1948018   6.989   6.234  -0.298
  858DIO     F648019   7.051   6.114  -0.298
  858DIO    C2048020   6.648   6.371  -0.432
  858DIO     O348021   6.578   6.492  -0.401
  858DIO    C2148022   6.534   6.498  -0.266
  858DIO    C2248023   6.445   6.379  -0.232
  858DIO    C2348024   6.526   6.253  -0.265
  858DIO     O448025   6.570   6.255  -0.400
  858DIO    C2448026   6.312   6.378  -0.311
  858DIO    C2548027   6.222   6.500  -0.291
  858DIO    C2648028   6.183   6.524  -0.146
  858DIO     H148029   7.904   6.290  -0.333
  858DIO     H248030   7.863   6.566   0.010
  858DIO     H348031   7.686   6.652  -0.193
  858DIO     H448032   7.434   6.648  -0.223
  858DIO     H548033   7.435   6.211  -0.207
  858DIO     H648034   6.826   6.585  -0.384
  858DIO     H748035   6.814   6.147  -0.397
  858DIO     H848036   6.657   6.370  -0.541
  858DIO     H948037   6.621   6.501  -0.199
  858DIO    H1048038   6.481   6.593  -0.252
  858DIO    H1148039   6.423   6.379  -0.125
  858DIO    H1248040   6.465   6.163  -0.251
  858DIO    H1348041   6.612   6.244  -0.197
  858DIO    H1448042   6.332   6.368  -0.419
  858DIO    H1548043   6.256   6.288  -0.283
  858DIO    H1648044   6.269   6.590  -0.332
  858DIO    H1748045   6.130   6.484  -0.349
  858DIO    H1848046   6.139   6.435  -0.101
  858DIO    H1948047   6.270   6.554  -0.086
  858DIO    H2048048   6.110   6.605  -0.140
  859DIO     F148049   3.293   4.559   2.456
  859DIO     C148050   3.215   4.455   2.493
  859DIO     C248051   3.071   4.472   2.496
  859DIO     C348052   2.982   4.361   2.539
  859DIO     C448053   3.048   4.233   2.575
  859DIO     C548054   3.192   4.219   2.571
  859DIO     F248055   3.248   4.100   2.601
  859DIO     C648056   3.276   4.329   2.530
  859DIO     F348057   3.410   4.315   2.528
  859DIO     C748058   2.836   4.377   2.544
  859DIO     C848059   2.759   4.339   2.664
  859DIO     C948060   2.614   4.353   2.669
  859DIO    C1048061   2.542   4.396   2.551
  859DIO    C1148062   2.614   4.441   2.433
  859DIO    C1248063   2.758   4.429   2.430
  859DIO     F448064   2.823   4.466   2.318
  859DIO     O148065   2.409   4.430   2.570
  859DIO    C1348066   2.315   4.407   2.470
  859DIO     O248067   2.314   4.332   2.369
  859DIO    C1448068   2.186   4.470   2.499
  859DIO    C1548069   2.120   4.456   2.630
  859DIO     F548070   2.182   4.392   2.731
  859DIO    C1648071   1.989   4.513   2.658
  859DIO    C1748072   1.913   4.580   2.554
  859DIO    C1848073   1.982   4.610   2.429
  859DIO    C1948074   2.113   4.555   2.401
  859DIO     F648075   2.176   4.598   2.290
  859DIO    C2048076   1.772   4.629   2.578
  859DIO     O348077   1.703   4.557   2.680
  859DIO    C2148078   1.659   4.428   2.636
  859DIO    C2248079   1.570   4.440   2.512
  859DIO    C2348080   1.651   4.516   2.407
  859DIO     O448081   1.695   4.642   2.458
  859DIO    C2448082   1.437   4.514   2.540
  859DIO    C2548083   1.347   4.451   2.646
  859DIO    C2648084   1.308   4.307   2.616
  859DIO     H148085   3.029   4.567   2.467
  859DIO     H248086   2.987   4.146   2.598
  859DIO     H348087   2.810   4.304   2.753
  859DIO     H448088   2.559   4.334   2.760
  859DIO     H548089   2.560   4.478   2.347
  859DIO     H648090   1.951   4.506   2.760
  859DIO     H748091   1.939   4.678   2.356
  859DIO     H848092   1.782   4.731   2.617
  859DIO     H948093   1.746   4.365   2.615
  859DIO    H1048094   1.606   4.381   2.719
  859DIO    H1148095   1.547   4.340   2.474
  859DIO    H1248096   1.590   4.536   2.318
  859DIO    H1348097   1.737   4.457   2.374
  859DIO    H1448098   1.457   4.618   2.570
  859DIO    H1548099   1.381   4.520   2.446
  859DIO    H1648100   1.394   4.456   2.745
  859DIO    H1748101   1.255   4.511   2.653
  859DIO    H1848102   1.264   4.298   2.517
  859DIO    H1948103   1.395   4.240   2.623
  859DIO    H2048104   1.234   4.272   2.689
  860DIO     F148105   3.983  10.782   9.327
  860DIO     C148106   3.906  10.699   9.399
  860DIO     C248107   3.762  10.715   9.396
  860DIO     C348108   3.673  10.627   9.475
  860DIO     C448109   3.738  10.521   9.555
  860DIO     C548110   3.883  10.507   9.556
  860DIO     F248111   3.938  10.406   9.627
  860DIO     C648112   3.966  10.594   9.478
  860DIO     F348113   4.100  10.581   9.481
  860DIO     C748114   3.527  10.643   9.474
  860DIO     C848115   3.449  10.651   9.600
  860DIO     C948116   3.305  10.666   9.600
  860DIO    C1048117   3.232  10.664   9.474
  860DIO    C1148118   3.305  10.664   9.348
  860DIO    C1248119   3.449  10.652   9.349
  860DIO     F448120   3.514  10.646   9.231
  860DIO     O148121   3.100  10.703   9.479
  860DIO    C1348122   3.005  10.645   9.395
  860DIO     O248123   3.005  10.539   9.327
  860DIO    C1448124   2.876  10.715   9.399
  860DIO    C1548125   2.810  10.749   9.527
  860DIO     F548126   2.873  10.725   9.644
  860DIO    C1648127   2.679  10.811   9.533
  860DIO    C1748128   2.603  10.837   9.411
  860DIO    C1848129   2.672  10.820   9.283
  860DIO    C1948130   2.804  10.759   9.277
  860DIO     F648131   2.866  10.760   9.158
  860DIO    C2048132   2.463  10.892   9.416
  860DIO     O348133   2.393  10.860   9.537
  860DIO    C2148134   2.349  10.725   9.542
  860DIO    C2248135   2.260  10.692   9.422
  860DIO    C2348136   2.341  10.725   9.297
  860DIO     O448137   2.385  10.861   9.299
  860DIO    C2448138   2.128  10.771   9.422
  860DIO    C2548139   2.037  10.750   9.543
  860DIO    C2648140   1.999  10.604   9.567
  860DIO     H148141   3.719  10.794   9.334
  860DIO     H248142   3.678  10.448   9.607
  860DIO     H348143   3.501  10.651   9.695
  860DIO     H448144   3.250  10.680   9.691
  860DIO     H548145   3.250  10.668   9.255
  860DIO     H648146   2.641  10.842   9.629
  860DIO     H748147   2.629  10.858   9.191
  860DIO     H848148   2.472  11.001   9.416
  860DIO     H948149   2.436  10.658   9.545
  860DIO    H1048150   2.297  10.710   9.636
  860DIO    H1148151   2.238  10.585   9.422
  860DIO    H1248152   2.280  10.712   9.207
  860DIO    H1348153   2.427  10.658   9.287
  860DIO    H1448154   2.148  10.878   9.413
  860DIO    H1548155   2.071  10.743   9.332
  860DIO    H1648156   2.084  10.790   9.634
  860DIO    H1748157   1.945  10.808   9.528
  860DIO    H1848158   1.955  10.560   9.477
  860DIO    H1948159   2.085  10.544   9.597
  860DIO    H2048160   1.925  10.598   9.648
  861DIO     F148161   4.187   0.362   2.311
  861DIO     C148162   4.109   0.340   2.419
  861DIO     C248163   3.965   0.351   2.407
  861DIO     C348164   3.877   0.329   2.523
  861DIO     C448165   3.942   0.293   2.651
  861DIO     C548166   4.086   0.282   2.661
  861DIO     F248167   4.142   0.245   2.778
  861DIO     C648168   4.170   0.305   2.545
  861DIO     F348169   4.304   0.296   2.556
  861DIO     C748170   3.730   0.342   2.513
  861DIO     C848171   3.653   0.424   2.608
  861DIO     C948172   3.508   0.436   2.598
  861DIO    C1048173   3.436   0.358   2.500
  861DIO    C1148174   3.508   0.282   2.400
  861DIO    C1248175   3.652   0.272   2.408
  861DIO     F448176   3.717   0.196   2.317
  861DIO     O148177   3.304   0.392   2.480
  861DIO    C1348178   3.209   0.295   2.448
  861DIO     O248179   3.208   0.169   2.459
  861DIO    C1448180   3.080   0.353   2.409
  861DIO    C1548181   3.014   0.457   2.490
  861DIO     F548182   3.076   0.509   2.598
  861DIO    C1648183   2.883   0.511   2.457
  861DIO    C1748184   2.807   0.457   2.345
  861DIO    C1848185   2.876   0.366   2.254
  861DIO    C1948186   3.007   0.314   2.286
  861DIO     F648187   3.070   0.242   2.190
  861DIO    C2048188   2.666   0.504   2.316
  861DIO     O348189   2.597   0.552   2.431
  861DIO    C2148190   2.553   0.447   2.517
  861DIO    C2248191   2.464   0.348   2.442
  861DIO    C2348192   2.545   0.299   2.322
  861DIO     O448193   2.589   0.408   2.242
  861DIO    C2448194   2.331   0.411   2.394
  861DIO    C2548195   2.241   0.468   2.503
  861DIO    C2648196   2.202   0.367   2.610
  861DIO     H148197   3.923   0.376   2.310
  861DIO     H248198   3.881   0.266   2.737
  861DIO     H348199   3.705   0.482   2.684
  861DIO     H448200   3.453   0.503   2.663
  861DIO     H548201   3.454   0.228   2.323
  861DIO     H648202   2.845   0.593   2.516
  861DIO     H748203   2.833   0.341   2.158
  861DIO     H848204   2.676   0.590   2.250
  861DIO     H948205   2.640   0.396   2.560
  861DIO    H1048206   2.500   0.492   2.601
  861DIO    H1148207   2.442   0.263   2.507
  861DIO    H1248208   2.484   0.234   2.258
  861DIO    H1348209   2.631   0.239   2.355
  861DIO    H1448210   2.351   0.491   2.321
  861DIO    H1548211   2.275   0.334   2.339
  861DIO    H1648212   2.288   0.555   2.551
  861DIO    H1748213   2.149   0.505   2.456
  861DIO    H1848214   2.158   0.277   2.565
  861DIO    H1948215   2.289   0.337   2.670
  861DIO    H2048216   2.129   0.410   2.678
  862DIO     F148217   6.877   8.820   3.378
  862DIO     C148218   6.799   8.766   3.474
  862DIO     C248219   6.655   8.781   3.465
  862DIO     C348220   6.566   8.725   3.570
  862DIO     C448221   6.632   8.652   3.681
  862DIO     C548222   6.776   8.639   3.687
  862DIO     F248223   6.831   8.568   3.787
  862DIO     C648224   6.860   8.695   3.584
  862DIO     F348225   6.994   8.683   3.591
  862DIO     C748226   6.420   8.740   3.564
  862DIO     C848227   6.343   8.790   3.680
  862DIO     C948228   6.198   8.804   3.674
  862DIO    C1048229   6.125   8.759   3.556
  862DIO    C1148230   6.198   8.717   3.438
  862DIO    C1248231   6.342   8.705   3.443
  862DIO     F448232   6.407   8.660   3.334
  862DIO     O148233   5.993   8.798   3.548
  862DIO    C1348234   5.899   8.715   3.488
  862DIO     O248235   5.898   8.592   3.461
  862DIO    C1448236   5.770   8.782   3.468
  862DIO    C1548237   5.703   8.857   3.577
  862DIO     F548238   5.766   8.874   3.695
  862DIO    C1648239   5.573   8.918   3.562
  862DIO    C1748240   5.497   8.901   3.438
  862DIO    C1848241   5.566   8.842   3.324
  862DIO    C1948242   5.697   8.782   3.339
  862DIO     F648243   5.760   8.742   3.226
  862DIO    C2048244   5.356   8.954   3.425
  862DIO     O348245   5.286   8.965   3.549
  862DIO    C2148246   5.243   8.839   3.599
  862DIO    C2248247   5.154   8.768   3.498
  862DIO    C2348248   5.235   8.757   3.369
  862DIO     O448249   5.279   8.885   3.326
  862DIO    C2448250   5.021   8.842   3.471
  862DIO    C2548251   4.930   8.863   3.593
  862DIO    C2648252   4.892   8.735   3.664
  862DIO     H148253   6.612   8.834   3.381
  862DIO     H248254   6.571   8.601   3.755
  862DIO     H348255   6.394   8.822   3.769
  862DIO     H448256   6.143   8.848   3.755
  862DIO     H548257   6.144   8.689   3.349
  862DIO     H648258   5.534   8.979   3.643
  862DIO     H748259   5.523   8.846   3.225
  862DIO     H848260   5.366   9.057   3.388
  862DIO     H948261   5.329   8.777   3.625
  862DIO    H1048262   5.190   8.857   3.693
  862DIO    H1148263   5.131   8.667   3.534
  862DIO    H1248264   5.173   8.714   3.289
  862DIO    H1348265   5.321   8.690   3.382
  862DIO    H1448266   5.041   8.940   3.426
  862DIO    H1548267   4.965   8.785   3.396
  862DIO    H1648268   4.978   8.932   3.664
  862DIO    H1748269   4.839   8.913   3.559
  862DIO    H1848270   4.848   8.662   3.595
  862DIO    H1948271   4.978   8.688   3.712
  862DIO    H2048272   4.818   8.756   3.742
  863DIO     F148273   5.354  -0.560   6.546
  863DIO     C148274   5.276  -0.473   6.613
  863DIO     C248275   5.132  -0.479   6.597
  863DIO     C348276   5.044  -0.384   6.667
  863DIO     C448277   5.109  -0.284   6.755
  863DIO     C548278   5.253  -0.280   6.769
  863DIO     F248279   5.309  -0.191   6.854
  863DIO     C648280   5.337  -0.374   6.699
  863DIO     F348281   5.471  -0.368   6.712
  863DIO     C748282   4.897  -0.388   6.652
  863DIO     C848283   4.820  -0.266   6.619
  863DIO     C948284   4.675  -0.269   6.604
  863DIO    C1048285   4.603  -0.392   6.632
  863DIO    C1148286   4.675  -0.515   6.657
  863DIO    C1248287   4.819  -0.512   6.669
  863DIO     F448288   4.884  -0.627   6.698
  863DIO     O148289   4.471  -0.395   6.592
  863DIO    C1348290   4.376  -0.466   6.666
  863DIO     O248291   4.375  -0.511   6.783
  863DIO    C1448292   4.247  -0.476   6.597
  863DIO    C1548293   4.181  -0.357   6.538
  863DIO     F548294   4.243  -0.238   6.538
  863DIO    C1648295   4.050  -0.364   6.475
  863DIO    C1748296   3.974  -0.489   6.475
  863DIO    C1848297   4.043  -0.610   6.517
  863DIO    C1948298   4.174  -0.604   6.578
  863DIO     F648299   4.237  -0.721   6.601
  863DIO    C2048300   3.833  -0.494   6.420
  863DIO     O348301   3.764  -0.370   6.427
  863DIO    C2148302   3.720  -0.338   6.559
  863DIO    C2248303   3.631  -0.448   6.615
  863DIO    C2348304   3.712  -0.578   6.607
  863DIO     O448305   3.756  -0.602   6.474
  863DIO    C2448306   3.498  -0.464   6.537
  863DIO    C2548307   3.408  -0.341   6.534
  863DIO    C2648308   3.369  -0.289   6.671
  863DIO     H148309   5.090  -0.555   6.533
  863DIO     H248310   5.048  -0.218   6.817
  863DIO     H348311   4.872  -0.172   6.600
  863DIO     H448312   4.620  -0.182   6.572
  863DIO     H548313   4.621  -0.608   6.672
  863DIO     H648314   4.012  -0.275   6.426
  863DIO     H748315   4.000  -0.708   6.498
  863DIO     H848316   3.843  -0.516   6.313
  863DIO     H948317   3.807  -0.322   6.624
  863DIO    H1048318   3.667  -0.242   6.554
  863DIO    H1148319   3.609  -0.427   6.720
  863DIO    H1248320   3.651  -0.663   6.638
  863DIO    H1348321   3.798  -0.574   6.675
  863DIO    H1448322   3.518  -0.495   6.434
  863DIO    H1548323   3.442  -0.547   6.583
  863DIO    H1648324   3.455  -0.261   6.476
  863DIO    H1748325   3.316  -0.367   6.480
  863DIO    H1848326   3.325  -0.368   6.733
  863DIO    H1948327   3.456  -0.248   6.724
  863DIO    H2048328   3.296  -0.209   6.662
  864DIO     F148329   5.635   3.771   0.842
  864DIO     C148330   5.558   3.723   0.743
  864DIO     C248331   5.414   3.722   0.760
  864DIO     C348332   5.325   3.668   0.654
  864DIO     C448333   5.390   3.618   0.531
  864DIO     C548334   5.535   3.620   0.517
  864DIO     F248335   5.590   3.578   0.401
  864DIO     C648336   5.618   3.673   0.622
  864DIO     F348337   5.752   3.674   0.608
  864DIO     C748338   5.178   3.664   0.670
  864DIO     C848339   5.101   3.540   0.645
  864DIO     C948340   4.957   3.537   0.660
  864DIO    C1048341   4.884   3.659   0.690
  864DIO    C1148342   4.957   3.781   0.723
  864DIO    C1248343   5.101   3.783   0.710
  864DIO     F448344   5.166   3.899   0.736
  864DIO     O148345   4.752   3.644   0.726
  864DIO    C1348346   4.657   3.741   0.692
  864DIO     O248347   4.656   3.833   0.607
  864DIO    C1448348   4.528   3.719   0.759
  864DIO    C1548349   4.462   3.586   0.759
  864DIO     F548350   4.525   3.480   0.705
  864DIO    C1648351   4.331   3.564   0.817
  864DIO    C1748352   4.255   3.676   0.874
  864DIO    C1848353   4.324   3.803   0.890
  864DIO    C1948354   4.456   3.825   0.832
  864DIO     F648355   4.518   3.940   0.864
  864DIO    C2048356   4.115   3.657   0.925
  864DIO     O348357   4.045   3.548   0.863
  864DIO    C2148358   4.001   3.578   0.731
  864DIO    C2248359   3.912   3.702   0.730
  864DIO    C2348360   3.993   3.815   0.795
  864DIO     O448361   4.037   3.777   0.925
  864DIO    C2448362   3.780   3.682   0.807
  864DIO    C2548363   3.689   3.570   0.755
  864DIO    C2648364   3.650   3.585   0.609
  864DIO     H148365   5.371   3.761   0.851
  864DIO     H248366   5.330   3.586   0.447
  864DIO     H348367   5.153   3.449   0.620
  864DIO     H448368   4.902   3.445   0.650
  864DIO     H548369   4.902   3.870   0.751
  864DIO     H648370   4.293   3.463   0.822
  864DIO     H748371   4.281   3.882   0.950
  864DIO     H848372   4.124   3.628   1.031
  864DIO     H948373   4.088   3.593   0.666
  864DIO    H1048374   3.948   3.491   0.693
  864DIO    H1148375   3.890   3.730   0.627
  864DIO    H1248376   3.932   3.905   0.805
  864DIO    H1348377   4.079   3.842   0.733
  864DIO    H1448378   3.799   3.663   0.913
  864DIO    H1548379   3.723   3.776   0.803
  864DIO    H1648380   3.736   3.472   0.771
  864DIO    H1748381   3.597   3.569   0.815
  864DIO    H1848382   3.607   3.683   0.589
  864DIO    H1948383   3.737   3.572   0.543
  864DIO    H2048384   3.577   3.508   0.581
  865DIO     F148385   3.578   9.955   2.501
  865DIO     C148386   3.501   9.866   2.436
  865DIO     C248387   3.357   9.873   2.452
  865DIO     C348388   3.268   9.775   2.384
  865DIO     C448389   3.333   9.673   2.299
  865DIO     C548390   3.478   9.669   2.285
  865DIO     F248391   3.533   9.577   2.203
  865DIO     C648392   3.561   9.765   2.353
  865DIO     F348393   3.695   9.759   2.340
  865DIO     C748394   3.122   9.780   2.400
  865DIO     C848395   3.044   9.659   2.436
  865DIO     C948396   2.900   9.663   2.451
  865DIO    C1048397   2.827   9.785   2.420
  865DIO    C1148398   2.900   9.907   2.391
  865DIO    C1248399   3.044   9.904   2.379
  865DIO     F448400   3.109  10.017   2.347
  865DIO     O148401   2.695   9.788   2.459
  865DIO    C1348402   2.600   9.858   2.384
  865DIO     O248403   2.600   9.899   2.265
  865DIO    C1448404   2.471   9.870   2.452
  865DIO    C1548405   2.405   9.753   2.514
  865DIO     F548406   2.468   9.633   2.518
  865DIO    C1648407   2.274   9.761   2.577
  865DIO    C1748408   2.198   9.886   2.574
  865DIO    C1848409   2.267  10.006   2.528
  865DIO    C1948410   2.399   9.998   2.468
  865DIO     F648411   2.461  10.115   2.441
  865DIO    C2048412   2.058   9.893   2.628
  865DIO     O348413   1.988   9.768   2.625
  865DIO    C2148414   1.944   9.733   2.494
  865DIO    C2248415   1.855   9.842   2.435
  865DIO    C2348416   1.936   9.971   2.439
  865DIO     O448417   1.980   9.999   2.572
  865DIO    C2448418   1.723   9.860   2.512
  865DIO    C2548419   1.632   9.736   2.519
  865DIO    C2648420   1.594   9.681   2.383
  865DIO     H148421   3.314   9.950   2.514
  865DIO     H248422   3.273   9.606   2.239
  865DIO     H348423   3.096   9.566   2.457
  865DIO     H448424   2.845   9.577   2.485
  865DIO     H548425   2.845   9.999   2.374
  865DIO     H648426   2.236   9.674   2.628
  865DIO     H748427   2.224  10.104   2.544
  865DIO     H848428   2.067   9.918   2.735
  865DIO     H948429   2.031   9.715   2.430
  865DIO    H1048430   1.892   9.637   2.501
  865DIO    H1148431   1.833   9.817   2.331
  865DIO    H1248432   1.875  10.056   2.406
  865DIO    H1348433   2.022   9.966   2.371
  865DIO    H1448434   1.743   9.893   2.615
  865DIO    H1548435   1.666   9.941   2.464
  865DIO    H1648436   1.679   9.658   2.579
  865DIO    H1748437   1.540   9.764   2.572
  865DIO    H1848438   1.550   9.758   2.319
  865DIO    H1948439   1.680   9.638   2.331
  865DIO    H2048440   1.520   9.601   2.395
  866DIO     F148441  10.411   1.315   8.522
  866DIO     C148442  10.334   1.419   8.559
  866DIO     C248443  10.190   1.408   8.546
  866DIO     C348444  10.101   1.520   8.584
  866DIO     C448445  10.166   1.642   8.637
  866DIO     C548446  10.311   1.650   8.649
  866DIO     F248447  10.366   1.761   8.701
  866DIO     C648448  10.394   1.539   8.611
  866DIO     F348449  10.528   1.549   8.621
  866DIO     C748450   9.955   1.512   8.570
  866DIO     C848451   9.877   1.617   8.501
  866DIO     C948452   9.733   1.609   8.488
  866DIO    C1048453   9.660   1.501   8.552
  866DIO    C1148454   9.733   1.392   8.614
  866DIO    C1248455   9.877   1.399   8.625
  866DIO     F448456   9.942   1.298   8.688
  866DIO     O148457   9.528   1.487   8.516
  866DIO    C1348458   9.433   1.441   8.608
  866DIO     O248459   9.433   1.435   8.733
  866DIO    C1448460   9.304   1.411   8.545
  866DIO    C1548461   9.238   1.505   8.453
  866DIO     F548462   9.301   1.619   8.416
  866DIO    C1648463   9.107   1.480   8.395
  866DIO    C1748464   9.031   1.361   8.433
  866DIO    C1848465   9.100   1.258   8.511
  866DIO    C1948466   9.232   1.283   8.567
  866DIO     F648467   9.294   1.179   8.625
  866DIO    C2048468   8.891   1.338   8.383
  866DIO     O348469   8.821   1.459   8.351
  866DIO    C2148470   8.777   1.530   8.466
  866DIO    C2248471   8.688   1.442   8.554
  866DIO    C2348472   8.769   1.317   8.587
  866DIO     O448473   8.813   1.252   8.468
  866DIO    C2448474   8.556   1.403   8.485
  866DIO    C2548475   8.465   1.519   8.444
  866DIO    C2648476   8.427   1.612   8.558
  866DIO     H148477  10.147   1.316   8.508
  866DIO     H248478  10.106   1.724   8.675
  866DIO     H348479   9.929   1.700   8.455
  866DIO     H448480   9.678   1.682   8.431
  866DIO     H548481   9.678   1.308   8.657
  866DIO     H648482   9.069   1.549   8.321
  866DIO     H748483   9.057   1.160   8.523
  866DIO     H848484   8.900   1.285   8.288
  866DIO     H948485   8.864   1.566   8.523
  866DIO    H1048486   8.725   1.620   8.433
  866DIO    H1148487   8.666   1.495   8.647
  866DIO    H1248488   8.708   1.245   8.642
  866DIO    H1348489   8.855   1.341   8.650
  866DIO    H1448490   8.576   1.342   8.396
  866DIO    H1548491   8.499   1.339   8.554
  866DIO    H1648492   8.512   1.578   8.364
  866DIO    H1748493   8.373   1.478   8.400
  866DIO    H1848494   8.383   1.555   8.641
  866DIO    H1948495   8.513   1.667   8.596
  866DIO    H2048496   8.353   1.685   8.524
  867DIO     F148497   4.593   7.026   3.718
  867DIO     C148498   4.516   7.025   3.608
  867DIO     C248499   4.372   7.016   3.623
  867DIO     C348500   4.283   7.013   3.505
  867DIO     C448501   4.348   7.021   3.372
  867DIO     C548502   4.493   7.030   3.360
  867DIO     F248503   4.548   7.041   3.238
  867DIO     C648504   4.576   7.032   3.477
  867DIO     F348505   4.710   7.039   3.465
  867DIO     C748506   4.136   7.003   3.517
  867DIO     C848507   4.059   6.902   3.442
  867DIO     C948508   3.915   6.893   3.454
  867DIO    C1048509   3.842   6.990   3.533
  867DIO    C1148510   3.914   7.086   3.615
  867DIO    C1248511   4.059   7.093   3.605
  867DIO     F448512   4.123   7.187   3.677
  867DIO     O148513   3.710   6.961   3.559
  867DIO    C1348514   3.615   7.063   3.570
  867DIO     O248515   3.614   7.183   3.533
  867DIO    C1448516   3.486   7.014   3.621
  867DIO    C1548517   3.420   6.895   3.564
  867DIO     F548518   3.482   6.821   3.470
  867DIO    C1648519   3.289   6.850   3.607
  867DIO    C1748520   3.213   6.926   3.706
  867DIO    C1848521   3.282   7.034   3.776
  867DIO    C1948522   3.414   7.078   3.733
  867DIO     F648523   3.476   7.169   3.811
  867DIO    C2048524   3.073   6.887   3.744
  867DIO     O348525   3.003   6.815   3.642
  867DIO    C2148526   2.959   6.899   3.536
  867DIO    C2248527   2.870   7.012   3.588
  867DIO    C2348528   2.951   7.085   3.695
  867DIO     O448529   2.995   6.996   3.796
  867DIO    C2448530   2.737   6.961   3.648
  867DIO    C2548531   2.647   6.882   3.553
  867DIO    C2648532   2.608   6.958   3.428
  867DIO     H148533   4.329   7.012   3.723
  867DIO     H248534   4.288   7.029   3.282
  867DIO     H348535   4.111   6.830   3.380
  867DIO     H448536   3.859   6.814   3.405
  867DIO     H548537   3.860   7.154   3.678
  867DIO     H648538   3.251   6.756   3.568
  867DIO     H748539   3.239   7.080   3.864
  867DIO     H848540   3.082   6.816   3.827
  867DIO     H948541   3.046   6.940   3.483
  867DIO    H1048542   2.906   6.837   3.463
  867DIO    H1148543   2.848   7.081   3.507
  867DIO    H1248544   2.890   7.162   3.743
  867DIO    H1348545   3.037   7.137   3.650
  867DIO    H1448546   2.757   6.898   3.736
  867DIO    H1548547   2.681   7.047   3.685
  867DIO    H1648548   2.694   6.787   3.526
  867DIO    H1748549   2.555   6.855   3.608
  867DIO    H1848550   2.564   7.055   3.452
  867DIO    H1948551   2.695   6.974   3.363
  867DIO    H2048552   2.535   6.901   3.370
  868DIO     F148553   9.968   5.187   7.591
  868DIO     C148554   9.890   5.291   7.555
  868DIO     C248555   9.746   5.274   7.552
  868DIO     C348556   9.657   5.385   7.510
  868DIO     C448557   9.723   5.513   7.475
  868DIO     C548558   9.867   5.527   7.479
  868DIO     F248559   9.922   5.647   7.451
  868DIO     C648560   9.951   5.417   7.519
  868DIO     F348561  10.084   5.431   7.522
  868DIO     C748562   9.511   5.370   7.505
  868DIO     C848563   9.434   5.409   7.385
  868DIO     C948564   9.289   5.395   7.380
  868DIO    C1048565   9.216   5.351   7.498
  868DIO    C1148566   9.289   5.304   7.615
  868DIO    C1248567   9.433   5.316   7.618
  868DIO     F448568   9.498   5.277   7.730
  868DIO     O148569   9.084   5.316   7.479
  868DIO    C1348570   8.990   5.339   7.578
  868DIO     O248571   8.989   5.413   7.680
  868DIO    C1448572   8.860   5.276   7.549
  868DIO    C1548573   8.794   5.291   7.418
  868DIO     F548574   8.857   5.357   7.318
  868DIO    C1648575   8.663   5.235   7.389
  868DIO    C1748576   8.588   5.167   7.493
  868DIO    C1848577   8.656   5.135   7.618
  868DIO    C1948578   8.788   5.190   7.646
  868DIO     F648579   8.850   5.145   7.757
  868DIO    C2048580   8.447   5.118   7.468
  868DIO     O348581   8.377   5.192   7.367
  868DIO    C2148582   8.333   5.319   7.412
  868DIO    C2248583   8.245   5.306   7.536
  868DIO    C2348584   8.325   5.229   7.640
  868DIO     O448585   8.370   5.104   7.588
  868DIO    C2448586   8.112   5.232   7.507
  868DIO    C2548587   8.021   5.297   7.402
  868DIO    C2648588   7.983   5.440   7.433
  868DIO     H148589   9.703   5.179   7.580
  868DIO     H248590   9.662   5.601   7.454
  868DIO     H348591   9.485   5.444   7.297
  868DIO     H448592   9.234   5.415   7.289
  868DIO     H548593   9.234   5.266   7.700
  868DIO     H648594   8.625   5.243   7.288
  868DIO     H748595   8.613   5.066   7.689
  868DIO     H848596   8.457   5.016   7.428
  868DIO     H948597   8.420   5.382   7.434
  868DIO    H1048598   8.281   5.368   7.330
  868DIO    H1148599   8.222   5.405   7.575
  868DIO    H1248600   8.264   5.208   7.728
  868DIO    H1348601   8.411   5.287   7.674
  868DIO    H1448602   8.132   5.129   7.476
  868DIO    H1548603   8.055   5.225   7.601
  868DIO    H1648604   8.068   5.292   7.303
  868DIO    H1748605   7.929   5.237   7.394
  868DIO    H1848606   7.939   5.449   7.533
  868DIO    H1948607   8.069   5.507   7.428
  868DIO    H2048608   7.909   5.476   7.361
  869DIO     F148609   7.265   7.174   8.196
  869DIO     C148610   7.188   7.127   8.097
  869DIO     C248611   7.044   7.125   8.114
  869DIO     C348612   6.955   7.072   8.008
  869DIO     C448613   7.020   7.024   7.884
  869DIO     C548614   7.165   7.027   7.870
  869DIO     F248615   7.220   6.985   7.754
  869DIO     C648616   7.248   7.078   7.975
  869DIO     F348617   7.382   7.079   7.961
  869DIO     C748618   6.808   7.069   8.024
  869DIO     C848619   6.731   6.945   7.997
  869DIO     C948620   6.587   6.942   8.012
  869DIO    C1048621   6.514   7.064   8.044
  869DIO    C1148622   6.586   7.185   8.077
  869DIO    C1248623   6.731   7.187   8.065
  869DIO     F448624   6.795   7.302   8.092
  869DIO     O148625   6.382   7.048   8.080
  869DIO    C1348626   6.287   7.145   8.047
  869DIO     O248627   6.286   7.239   7.962
  869DIO    C1448628   6.158   7.122   8.113
  869DIO    C1548629   6.092   6.990   8.111
  869DIO     F548630   6.154   6.884   8.057
  869DIO    C1648631   5.961   6.967   8.170
  869DIO    C1748632   5.885   7.078   8.227
  869DIO    C1848633   5.954   7.205   8.245
  869DIO    C1948634   6.086   7.228   8.188
  869DIO     F648635   6.148   7.343   8.221
  869DIO    C2048636   5.745   7.059   8.278
  869DIO     O348637   5.675   6.950   8.215
  869DIO    C2148638   5.631   6.982   8.084
  869DIO    C2248639   5.542   7.106   8.084
  869DIO    C2348640   5.623   7.218   8.150
  869DIO     O448641   5.667   7.179   8.280
  869DIO    C2448642   5.409   7.085   8.160
  869DIO    C2548643   5.319   6.974   8.107
  869DIO    C2648644   5.280   6.990   7.961
  869DIO     H148645   7.001   7.163   8.206
  869DIO     H248646   6.960   6.993   7.799
  869DIO     H348647   6.783   6.854   7.971
  869DIO     H448648   6.531   6.850   8.001
  869DIO     H548649   6.532   7.274   8.106
  869DIO     H648650   5.923   6.866   8.173
  869DIO     H748651   5.911   7.284   8.306
  869DIO     H848652   5.754   7.029   8.384
  869DIO     H948653   5.718   6.997   8.019
  869DIO    H1048654   5.578   6.895   8.044
  869DIO    H1148655   5.520   7.135   7.981
  869DIO    H1248656   5.562   7.308   8.161
  869DIO    H1348657   5.709   7.246   8.088
  869DIO    H1448658   5.429   7.065   8.266
  869DIO    H1548659   5.353   7.179   8.158
  869DIO    H1648660   5.366   6.876   8.122
  869DIO    H1748661   5.227   6.973   8.168
  869DIO    H1848662   5.236   7.088   7.942
  869DIO    H1948663   5.367   6.978   7.895
  869DIO    H2048664   5.207   6.914   7.933
  870DIO     F148665  10.123   1.542   2.263
  870DIO     C148666  10.045   1.641   2.214
  870DIO     C248667   9.901   1.624   2.213
  870DIO     C348668   9.812   1.728   2.157
  870DIO     C448669   9.878   1.851   2.105
  870DIO     C548670  10.022   1.865   2.107
  870DIO     F248671  10.077   1.980   2.063
  870DIO     C648672  10.106   1.761   2.162
  870DIO     F348673  10.239   1.775   2.162
  870DIO     C748674   9.666   1.712   2.154
  870DIO     C848675   9.589   1.735   2.030
  870DIO     C948676   9.444   1.720   2.027
  870DIO    C1048677   9.371   1.692   2.149
  870DIO    C1148678   9.444   1.662   2.271
  870DIO    C1248679   9.588   1.674   2.273
  870DIO     F448680   9.653   1.651   2.389
  870DIO     O148681   9.239   1.656   2.135
  870DIO    C1348682   9.145   1.691   2.231
  870DIO     O248683   9.144   1.778   2.322
  870DIO    C1448684   9.015   1.625   2.210
  870DIO    C1548685   8.949   1.623   2.078
  870DIO     F548686   9.012   1.674   1.970
  870DIO    C1648687   8.818   1.563   2.056
  870DIO    C1748688   8.743   1.509   2.169
  870DIO    C1848689   8.811   1.495   2.296
  870DIO    C1948690   8.943   1.553   2.317
  870DIO     F648691   9.005   1.523   2.433
  870DIO    C2048692   8.602   1.458   2.150
  870DIO     O348693   8.532   1.517   2.041
  870DIO    C2148694   8.488   1.650   2.069
  870DIO    C2248695   8.400   1.653   2.193
  870DIO    C2348696   8.480   1.590   2.306
  870DIO     O448697   8.525   1.459   2.271
  870DIO    C2448698   8.267   1.576   2.174
  870DIO    C2548699   8.176   1.626   2.061
  870DIO    C2648700   8.138   1.773   2.073
  870DIO     H148701   9.858   1.533   2.253
  870DIO     H248702   9.817   1.934   2.072
  870DIO     H348703   9.640   1.759   1.937
  870DIO     H448704   9.389   1.729   1.934
  870DIO     H548705   9.389   1.635   2.361
  870DIO     H648706   8.780   1.557   1.955
  870DIO     H748707   8.768   1.436   2.377
  870DIO     H848708   8.612   1.352   2.124
  870DIO     H948709   8.575   1.715   2.082
  870DIO    H1048710   8.436   1.687   1.981
  870DIO    H1148711   8.377   1.757   2.219
  870DIO    H1248712   8.419   1.581   2.397
  870DIO    H1348713   8.566   1.653   2.332
  870DIO    H1448714   8.287   1.470   2.157
  870DIO    H1548715   8.210   1.581   2.268
  870DIO    H1648716   8.223   1.609   1.964
  870DIO    H1748717   8.084   1.566   2.061
  870DIO    H1848718   8.094   1.794   2.171
  870DIO    H1948719   8.224   1.838   2.059
  870DIO    H2048720   8.064   1.799   1.997
  871DIO     F148721   4.544   4.655  10.524
  871DIO     C148722   4.467   4.586  10.609
  871DIO     C248723   4.323   4.602  10.603
  871DIO     C348724   4.234   4.529  10.697
  871DIO     C448725   4.299   4.438  10.794
  871DIO     C548726   4.444   4.424  10.797
  871DIO     F248727   4.499   4.337  10.885
  871DIO     C648728   4.527   4.497  10.705
  871DIO     F348729   4.661   4.484  10.711
  871DIO     C748730   4.087   4.544  10.693
  871DIO     C848731   4.010   4.574  10.816
  871DIO     C948732   3.866   4.589  10.812
  871DIO    C1048733   3.793   4.565  10.689
  871DIO    C1148734   3.865   4.543  10.565
  871DIO    C1248735   4.010   4.531  10.568
  871DIO     F448736   4.074   4.505  10.453
  871DIO     O148737   3.661   4.604  10.687
  871DIO    C1348738   3.566   4.533  10.614
  871DIO     O248739   3.565   4.416  10.566
  871DIO    C1448740   3.437   4.602  10.606
  871DIO    C1548741   3.371   4.658  10.726
  871DIO     F548742   3.433   4.654  10.846
  871DIO    C1648743   3.240   4.720  10.721
  871DIO    C1748744   3.164   4.724  10.597
  871DIO    C1848745   3.233   4.685  10.474
  871DIO    C1948746   3.365   4.624  10.479
  871DIO     F648747   3.427   4.604  10.361
  871DIO    C2048748   3.024   4.779  10.592
  871DIO     O348749   2.954   4.769  10.717
  871DIO    C2148750   2.910   4.636  10.745
  871DIO    C2248751   2.821   4.583  10.633
  871DIO    C2348752   2.902   4.594  10.504
  871DIO     O448753   2.946   4.728  10.483
  871DIO    C2448754   2.688   4.661  10.619
  871DIO    C2548755   2.598   4.661  10.743
  871DIO    C2648756   2.559   4.522  10.791
  871DIO     H148757   4.280   4.668  10.529
  871DIO     H248758   4.239   4.375  10.858
  871DIO     H348759   4.062   4.590  10.909
  871DIO     H448760   3.810   4.619  10.900
  871DIO     H548761   3.811   4.531  10.472
  871DIO     H648762   3.202   4.767  10.811
  871DIO     H748763   3.190   4.707  10.377
  871DIO     H848764   3.033   4.886  10.573
  871DIO     H948765   2.997   4.571  10.760
  871DIO    H1048766   2.857   4.638  10.841
  871DIO    H1148767   2.799   4.478  10.652
  871DIO    H1248768   2.841   4.565  10.418
  871DIO    H1348769   2.988   4.526  10.506
  871DIO    H1448770   2.708   4.765  10.592
  871DIO    H1548771   2.632   4.618  10.535
  871DIO    H1648772   2.645   4.717  10.824
  871DIO    H1748773   2.506   4.716  10.718
  871DIO    H1848774   2.515   4.463  10.710
  871DIO    H1948775   2.646   4.468  10.831
  871DIO    H2048776   2.486   4.530  10.872
  872DIO     F148777   7.971   8.930   6.701
  872DIO     C148778   7.893   8.822   6.720
  872DIO     C248779   7.749   8.837   6.726
  872DIO     C348780   7.660   8.721   6.749
  872DIO     C448781   7.726   8.589   6.763
  872DIO     C548782   7.870   8.576   6.756
  872DIO     F248783   7.925   8.453   6.765
  872DIO     C648784   7.954   8.691   6.734
  872DIO     F348785   8.087   8.678   6.730
  872DIO     C748786   7.514   8.735   6.756
  872DIO     C848787   7.437   8.677   6.868
  872DIO     C948788   7.292   8.691   6.876
  872DIO    C1048789   7.219   8.753   6.767
  872DIO    C1148790   7.292   8.818   6.659
  872DIO    C1248791   7.436   8.807   6.653
  872DIO     F448792   7.501   8.863   6.549
  872DIO     O148793   7.087   8.784   6.791
  872DIO    C1348794   6.993   8.778   6.689
  872DIO     O248795   6.992   8.722   6.576
  872DIO    C1448796   6.863   8.836   6.728
  872DIO    C1548797   6.797   8.799   6.855
  872DIO     F548798   6.860   8.718   6.943
  872DIO    C1648799   6.666   8.849   6.893
  872DIO    C1748800   6.591   8.934   6.801
  872DIO    C1848801   6.659   8.985   6.683
  872DIO    C1948802   6.791   8.936   6.647
  872DIO     F648803   6.853   8.998   6.545
  872DIO    C2048804   6.450   8.978   6.834
  872DIO     O348805   6.380   8.889   6.921
  872DIO    C2148806   6.336   8.771   6.856
  872DIO    C2248807   6.248   8.804   6.736
  872DIO    C2348808   6.328   8.897   6.646
  872DIO     O448809   6.373   9.012   6.718
  872DIO    C2448810   6.115   8.872   6.777
  872DIO    C2548811   6.024   8.791   6.870
  872DIO    C2648812   5.986   8.654   6.816
  872DIO     H148813   7.706   8.936   6.713
  872DIO     H248814   7.665   8.499   6.770
  872DIO     H348815   7.488   8.628   6.950
  872DIO     H448816   7.237   8.656   6.962
  872DIO     H548817   7.237   8.870   6.581
  872DIO     H648818   6.628   8.826   6.991
  872DIO     H748819   6.616   9.065   6.624
  872DIO     H848820   6.460   9.072   6.890
  872DIO     H948821   6.423   8.712   6.824
  872DIO    H1048822   6.284   8.709   6.929
  872DIO    H1148823   6.225   8.712   6.681
  872DIO    H1248824   6.267   8.932   6.562
  872DIO    H1348825   6.414   8.844   6.603
  872DIO    H1448826   6.135   8.969   6.825
  872DIO    H1548827   6.058   8.894   6.685
  872DIO    H1648828   6.071   8.779   6.968
  872DIO    H1748829   5.932   8.849   6.887
  872DIO    H1848830   5.942   8.662   6.716
  872DIO    H1948831   6.072   8.588   6.810
  872DIO    H2048832   5.912   8.607   6.882
  873DIO     F148833  10.500  -0.655   3.503
  873DIO     C148834  10.422  -0.714   3.410
  873DIO     C248835  10.278  -0.713   3.427
  873DIO     C348836  10.189  -0.779   3.329
  873DIO     C448837  10.255  -0.842   3.212
  873DIO     C548838  10.399  -0.841   3.197
  873DIO     F248839  10.455  -0.897   3.088
  873DIO     C648840  10.483  -0.777   3.296
  873DIO     F348841  10.617  -0.778   3.282
  873DIO     C748842  10.043  -0.780   3.345
  873DIO     C848843   9.966  -0.906   3.334
  873DIO     C948844   9.821  -0.908   3.349
  873DIO    C1048845   9.749  -0.783   3.365
  873DIO    C1148846   9.821  -0.658   3.384
  873DIO    C1248847   9.965  -0.657   3.371
  873DIO     F448848  10.030  -0.540   3.383
  873DIO     O148849   9.616  -0.794   3.403
  873DIO    C1348850   9.522  -0.702   3.358
  873DIO     O248851   9.521  -0.620   3.263
  873DIO    C1448852   9.393  -0.716   3.426
  873DIO    C1548853   9.326  -0.847   3.441
  873DIO     F548854   9.389  -0.960   3.401
  873DIO    C1648855   9.196  -0.863   3.503
  873DIO    C1748856   9.120  -0.746   3.545
  873DIO    C1848857   9.189  -0.617   3.547
  873DIO    C1948858   9.320  -0.602   3.488
  873DIO     F648859   9.383  -0.484   3.506
  873DIO    C2048860   8.979  -0.759   3.599
  873DIO     O348861   8.909  -0.874   3.550
  873DIO    C2148862   8.866  -0.859   3.415
  873DIO    C2248863   8.777  -0.736   3.400
  873DIO    C2348864   8.858  -0.616   3.451
  873DIO     O448865   8.902  -0.639   3.585
  873DIO    C2448866   8.644  -0.747   3.478
  873DIO    C2548867   8.553  -0.864   3.440
  873DIO    C2648868   8.515  -0.866   3.293
  873DIO     H148869  10.236  -0.664   3.514
  873DIO     H248870  10.194  -0.883   3.132
  873DIO     H348871  10.017  -1.000   3.320
  873DIO     H448872   9.766  -1.001   3.350
  873DIO     H548873   9.767  -0.567   3.401
  873DIO     H648874   9.158  -0.963   3.518
  873DIO     H748875   9.146  -0.532   3.598
  873DIO     H848876   8.989  -0.775   3.707
  873DIO     H948877   8.952  -0.852   3.349
  873DIO    H1048878   8.813  -0.950   3.387
  873DIO    H1148879   8.754  -0.720   3.294
  873DIO    H1248880   8.797  -0.526   3.451
  873DIO    H1348881   8.944  -0.597   3.386
  873DIO    H1448882   8.664  -0.754   3.586
  873DIO    H1548883   8.588  -0.654   3.464
  873DIO    H1648884   8.601  -0.959   3.467
  873DIO    H1748885   8.462  -0.858   3.500
  873DIO    H1848886   8.471  -0.771   3.262
  873DIO    H1948887   8.602  -0.887   3.229
  873DIO    H2048888   8.441  -0.945   3.274
  874DIO     F148889   6.427  -0.175  -0.211
  874DIO     C148890   6.349  -0.153  -0.103
  874DIO     C248891   6.205  -0.147  -0.119
  874DIO     C348892   6.116  -0.121  -0.004
  874DIO     C448893   6.182  -0.102   0.128
  874DIO     C548894   6.326  -0.108   0.141
  874DIO     F248895   6.382  -0.095   0.263
  874DIO     C648896   6.410  -0.134   0.026
  874DIO     F348897   6.544  -0.138   0.040
  874DIO     C748898   5.970  -0.114  -0.019
  874DIO     C848899   5.893   0.000   0.036
  874DIO     C948900   5.748   0.007   0.022
  874DIO    C1048901   5.676  -0.104  -0.037
  874DIO    C1148902   5.748  -0.214  -0.098
  874DIO    C1248903   5.892  -0.219  -0.086
  874DIO     F448904   5.957  -0.325  -0.139
  874DIO     O148905   5.543  -0.080  -0.068
  874DIO    C1348906   5.449  -0.182  -0.059
  874DIO     O248907   5.448  -0.293   0.002
  874DIO    C1448908   5.320  -0.145  -0.118
  874DIO    C1548909   5.253  -0.017  -0.085
  874DIO     F548910   5.316   0.074  -0.008
  874DIO    C1648911   5.123   0.019  -0.137
  874DIO    C1748912   5.047  -0.075  -0.219
  874DIO    C1848913   5.116  -0.195  -0.266
  874DIO    C1948914   5.247  -0.230  -0.215
  874DIO     F648915   5.310  -0.334  -0.274
  874DIO    C2048916   4.906  -0.044  -0.264
  874DIO     O348917   4.836   0.046  -0.178
  874DIO    C2148918   4.793  -0.015  -0.057
  874DIO    C2248919   4.704  -0.136  -0.086
  874DIO    C2348920   4.785  -0.229  -0.176
  874DIO     O448921   4.829  -0.161  -0.293
  874DIO    C2448922   4.571  -0.098  -0.155
  874DIO    C2548923   4.480  -0.002  -0.078
  874DIO    C2648924   4.442  -0.051   0.061
  874DIO     H148925   6.163  -0.163  -0.218
  874DIO     H248926   6.121  -0.092   0.217
  874DIO     H348927   5.944   0.083   0.082
  874DIO     H448928   5.693   0.094   0.054
  874DIO     H548929   5.694  -0.294  -0.146
  874DIO     H648930   5.085   0.118  -0.117
  874DIO     H748931   5.073  -0.257  -0.343
  874DIO     H848932   4.916   0.009  -0.359
  874DIO     H948933   4.879  -0.045   0.003
  874DIO    H1048934   4.740   0.060   0.002
  874DIO    H1148935   4.681  -0.188   0.007
  874DIO    H1248936   4.724  -0.314  -0.208
  874DIO    H1348937   4.871  -0.271  -0.122
  874DIO    H1448938   4.591  -0.053  -0.254
  874DIO    H1548939   4.515  -0.190  -0.175
  874DIO    H1648940   4.528   0.097  -0.070
  874DIO    H1748941   4.389   0.014  -0.136
  874DIO    H1848942   4.398  -0.151   0.056
  874DIO    H1948943   4.529  -0.055   0.127
  874DIO    H2048944   4.368   0.016   0.105
  875DIO     F148945   3.878   5.504   9.861
  875DIO     C148946   3.800   5.550   9.961
  875DIO     C248947   3.656   5.551   9.944
  875DIO     C348948   3.567   5.603  10.051
  875DIO     C448949   3.633   5.649  10.176
  875DIO     C548950   3.777   5.646  10.190
  875DIO     F248951   3.832   5.685  10.306
  875DIO     C648952   3.861   5.596  10.084
  875DIO     F348953   3.994   5.595  10.098
  875DIO     C748954   3.421   5.606  10.036
  875DIO     C848955   3.344   5.729  10.064
  875DIO     C948956   3.199   5.733  10.049
  875DIO    C1048957   3.126   5.612  10.016
  875DIO    C1148958   3.199   5.491   9.980
  875DIO    C1248959   3.343   5.489   9.992
  875DIO     F448960   3.408   5.374   9.964
  875DIO     O148961   2.994   5.628   9.980
  875DIO    C1348962   2.900   5.531  10.011
  875DIO     O248963   2.899   5.436  10.094
  875DIO    C1448964   2.771   5.554   9.946
  875DIO    C1548965   2.704   5.686   9.949
  875DIO     F548966   2.767   5.792  10.006
  875DIO    C1648967   2.573   5.710   9.891
  875DIO    C1748968   2.498   5.600   9.832
  875DIO    C1848969   2.566   5.473   9.812
  875DIO    C1948970   2.698   5.450   9.869
  875DIO     F648971   2.761   5.336   9.834
  875DIO    C2048972   2.357   5.621   9.781
  875DIO     O348973   2.287   5.728   9.846
  875DIO    C2148974   2.244   5.694   9.977
  875DIO    C2248975   2.155   5.570   9.974
  875DIO    C2348976   2.235   5.459   9.907
  875DIO     O448977   2.280   5.500   9.778
  875DIO    C2448978   2.022   5.592   9.898
  875DIO    C2548979   1.931   5.703   9.953
  875DIO    C2648980   1.893   5.684  10.099
  875DIO     H148981   3.613   5.515   9.852
  875DIO     H248982   3.572   5.678  10.261
  875DIO     H348983   3.395   5.820  10.091
  875DIO     H448984   3.144   5.825  10.062
  875DIO     H548985   3.144   5.403   9.950
  875DIO     H648986   2.535   5.811   9.889
  875DIO     H748987   2.524   5.396   9.750
  875DIO     H848988   2.367   5.652   9.676
  875DIO     H948989   2.330   5.678  10.042
  875DIO    H1048990   2.191   5.780  10.018
  875DIO    H1148991   2.132   5.539  10.077
  875DIO    H1248992   2.174   5.369   9.894
  875DIO    H1348993   2.322   5.431   9.968
  875DIO    H1448994   2.042   5.614   9.793
  875DIO    H1548995   1.965   5.498   9.900
  875DIO    H1648996   1.979   5.801   9.940
  875DIO    H1748997   1.839   5.705   9.893
  875DIO    H1848998   1.849   5.585  10.116
  875DIO    H1948999   1.979   5.695  10.165
  875DIO    H2049000   1.819   5.760  10.129
    1DIO     F149001   4.018   1.841   9.746
    1DIO     C149002   4.095   1.748   9.687
    1DIO     C249003   4.240   1.765   9.688
    1DIO     C349004   4.328   1.666   9.623
    1DIO     C449005   4.263   1.548   9.560
    1DIO     C549006   4.119   1.534   9.561
    1DIO     F249007   4.063   1.424   9.506
    1DIO     C649008   4.035   1.633   9.625
    1DIO     F349009   3.901   1.618   9.624
    1DIO     C749010   4.475   1.682   9.621
    1DIO     C849011   4.552   1.670   9.495
    1DIO     C949012   4.697   1.685   9.494
    1DIO    C1049013   4.769   1.702   9.618
    1DIO    C1149014   4.697   1.721   9.743
    1DIO    C1249015   4.553   1.709   9.744
    1DIO     F449016   4.488   1.722   9.861
    1DIO     O149017   4.901   1.740   9.607
    1DIO    C1349018   4.996   1.696   9.700
    1DIO     O249019   4.997   1.601   9.782
    1DIO    C1449020   5.125   1.764   9.685
    1DIO    C1549021   5.191   1.778   9.553
    1DIO     F549022   5.129   1.736   9.441
    1DIO    C1649023   5.322   1.839   9.538
    1DIO    C1749024   5.398   1.883   9.655
    1DIO    C1849025   5.329   1.885   9.783
    1DIO    C1949026   5.197   1.826   9.798
    1DIO     F649027   5.135   1.845   9.916
    1DIO    C2049028   5.539   1.936   9.641
    1DIO     O349029   5.608   1.886   9.526
    1DIO    C2149030   5.652   1.752   9.542
    1DIO    C2249031   5.741   1.737   9.665
    1DIO    C2349032   5.660   1.789   9.784
    1DIO     O449033   5.616   1.923   9.761
    1DIO    C2449034   5.874   1.815   9.654
    1DIO    C2549035   5.964   1.776   9.537
    1DIO    C2649036   6.003   1.629   9.535
    1DIO     H149037   4.282   1.851   9.737
    1DIO     H249038   4.323   1.468   9.520
    1DIO     H349039   4.500   1.655   9.402
    1DIO     H449040   4.752   1.685   9.401
    1DIO     H549041   4.751   1.739   9.834
    1DIO     H649042   5.360   1.854   9.438
    1DIO     H749043   5.372   1.937   9.868
    1DIO     H849044   5.529   2.044   9.624
    1DIO     H949045   5.565   1.685   9.550
    1DIO    H1049046   5.705   1.723   9.451
    1DIO    H1149047   5.763   1.631   9.682
    1DIO    H1249048   5.721   1.790   9.875
    1DIO    H1349049   5.574   1.724   9.804
    1DIO    H1449050   5.854   1.923   9.646
    1DIO    H1549051   5.930   1.802   9.747
    1DIO    H1649052   5.917   1.802   9.441
    1DIO    H1749053   6.056   1.836   9.543
    1DIO    H1849054   6.047   1.599   9.631
    1DIO    H1949055   5.916   1.565   9.515
    1DIO    H2049056   6.076   1.610   9.457
    2DIO     F149057   1.102   6.457   3.766
    2DIO     C149058   1.180   6.472   3.875
    2DIO     C249059   1.324   6.462   3.861
    2DIO     C349060   1.413   6.476   3.979
    2DIO     C449061   1.347   6.504   4.109
    2DIO     C549062   1.203   6.514   4.120
    2DIO     F249063   1.148   6.543   4.239
    2DIO     C649064   1.119   6.499   4.003
    2DIO     F349065   0.986   6.507   4.014
    2DIO     C749066   1.559   6.464   3.968
    2DIO     C849067   1.636   6.376   4.058
    2DIO     C949068   1.781   6.365   4.047
    2DIO    C1049069   1.854   6.449   3.954
    2DIO    C1149070   1.781   6.532   3.859
    2DIO    C1249071   1.637   6.540   3.868
    2DIO     F449072   1.572   6.622   3.782
    2DIO     O149073   1.986   6.416   3.932
    2DIO    C1349074   2.080   6.515   3.907
    2DIO     O249075   2.081   6.640   3.926
    2DIO    C1449076   2.209   6.460   3.864
    2DIO    C1549077   2.276   6.351   3.938
    2DIO     F549078   2.213   6.292   4.042
    2DIO    C1649079   2.407   6.299   3.902
    2DIO    C1749080   2.482   6.360   3.793
    2DIO    C1849081   2.414   6.457   3.708
    2DIO    C1949082   2.282   6.507   3.744
    2DIO     F649083   2.219   6.585   3.653
    2DIO    C2049084   2.623   6.316   3.761
    2DIO     O349085   2.693   6.260   3.873
    2DIO    C2149086   2.736   6.359   3.965
    2DIO    C2249087   2.825   6.462   3.897
    2DIO    C2349088   2.745   6.519   3.780
    2DIO     O449089   2.700   6.416   3.693
    2DIO    C2449090   2.958   6.403   3.845
    2DIO    C2549091   3.049   6.339   3.950
    2DIO    C2649092   3.087   6.433   4.063
    2DIO     H149093   1.367   6.443   3.764
    2DIO     H249094   1.408   6.525   4.197
    2DIO     H349095   1.585   6.314   4.130
    2DIO     H449096   1.836   6.294   4.107
    2DIO     H549097   1.836   6.590   3.786
    2DIO     H649098   2.445   6.213   3.954
    2DIO     H749099   2.456   6.489   3.614
    2DIO     H849100   2.613   6.233   3.689
    2DIO     H949101   2.650   6.407   4.011
    2DIO    H1049102   2.789   6.308   4.046
    2DIO    H1149103   2.848   6.543   3.967
    2DIO    H1249104   2.806   6.588   3.721
    2DIO    H1349105   2.658   6.577   3.817
    2DIO    H1449106   2.938   6.328   3.767
    2DIO    H1549107   3.015   6.483   3.795
    2DIO    H1649108   3.001   6.249   3.992
    2DIO    H1749109   3.141   6.305   3.901
    2DIO    H1849110   3.131   6.525   4.025
    2DIO    H1949111   3.001   6.459   4.125
    2DIO    H2049112   3.161   6.385   4.129
    3DIO     F149113   2.147   4.508   8.422
    3DIO     C149114   2.224   4.603   8.366
    3DIO     C249115   2.368   4.595   8.381
    3DIO     C349116   2.457   4.698   8.324
    3DIO     C449117   2.392   4.808   8.249
    3DIO     C549118   2.247   4.814   8.235
    3DIO     F249119   2.192   4.914   8.163
    3DIO     C649120   2.164   4.712   8.293
    3DIO     F349121   2.030   4.719   8.281
    3DIO     C749122   2.604   4.693   8.338
    3DIO     C849123   2.681   4.809   8.386
    3DIO     C949124   2.825   4.804   8.401
    3DIO    C1049125   2.898   4.686   8.358
    3DIO    C1149126   2.826   4.566   8.317
    3DIO    C1249127   2.681   4.571   8.306
    3DIO     F449128   2.617   4.461   8.263
    3DIO     O149129   3.030   4.678   8.396
    3DIO    C1349130   3.125   4.617   8.315
    3DIO     O249131   3.126   4.587   8.192
    3DIO    C1449132   3.254   4.598   8.382
    3DIO    C1549133   3.320   4.708   8.455
    3DIO     F549134   3.258   4.827   8.470
    3DIO    C1649135   3.451   4.694   8.516
    3DIO    C1749136   3.527   4.570   8.501
    3DIO    C1849137   3.458   4.455   8.444
    3DIO    C1949138   3.326   4.469   8.384
    3DIO     F649139   3.264   4.355   8.346
    3DIO    C2049140   3.667   4.557   8.554
    3DIO     O349141   3.737   4.682   8.564
    3DIO    C2149142   3.781   4.730   8.437
    3DIO    C2249143   3.870   4.627   8.367
    3DIO    C2349144   3.789   4.498   8.358
    3DIO     O449145   3.745   4.457   8.487
    3DIO    C2449146   4.003   4.602   8.442
    3DIO    C2549147   4.093   4.724   8.461
    3DIO    C2649148   4.132   4.793   8.331
    3DIO     H149149   2.411   4.511   8.435
    3DIO     H249150   2.452   4.881   8.196
    3DIO     H349151   2.629   4.899   8.417
    3DIO     H449152   2.881   4.886   8.444
    3DIO     H549153   2.880   4.477   8.291
    3DIO     H649154   3.489   4.775   8.576
    3DIO     H749155   3.501   4.355   8.450
    3DIO     H849156   3.658   4.522   8.658
    3DIO     H949157   3.694   4.754   8.375
    3DIO    H1049158   3.834   4.824   8.453
    3DIO    H1149159   3.892   4.662   8.266
    3DIO    H1249160   3.850   4.417   8.317
    3DIO    H1349161   3.703   4.510   8.292
    3DIO    H1449162   3.983   4.559   8.541
    3DIO    H1549163   4.059   4.526   8.387
    3DIO    H1649164   4.046   4.796   8.529
    3DIO    H1749165   4.185   4.691   8.512
    3DIO    H1849166   4.176   4.722   8.260
    3DIO    H1949167   4.045   4.840   8.284
    3DIO    H2049168   4.205   4.871   8.351
    4DIO     F149169   6.155   0.285   8.000
    4DIO     C149170   6.233   0.293   7.890
    4DIO     C249171   6.377   0.300   7.905
    4DIO     C349172   6.466   0.311   7.787
    4DIO     C449173   6.400   0.311   7.654
    4DIO     C549174   6.256   0.303   7.642
    4DIO     F249175   6.201   0.300   7.519
    4DIO     C649176   6.172   0.294   7.759
    4DIO     F349177   6.038   0.288   7.746
    4DIO     C749178   6.612   0.320   7.800
    4DIO     C849179   6.689   0.425   7.731
    4DIO     C949180   6.834   0.434   7.744
    4DIO    C1049181   6.907   0.332   7.817
    4DIO    C1149182   6.834   0.231   7.893
    4DIO    C1249183   6.690   0.225   7.882
    4DIO     F449184   6.625   0.127   7.949
    4DIO     O149185   7.039   0.360   7.845
    4DIO    C1349186   7.133   0.257   7.850
    4DIO     O249187   7.134   0.140   7.805
    4DIO    C1449188   7.262   0.302   7.903
    4DIO    C1549189   7.329   0.425   7.853
    4DIO     F549190   7.266   0.504   7.764
    4DIO    C1649191   7.459   0.467   7.900
    4DIO    C1749192   7.535   0.385   7.993
    4DIO    C1849193   7.466   0.273   8.056
    4DIO    C1949194   7.335   0.232   8.011
    4DIO     F649195   7.272   0.136   8.083
    4DIO    C2049196   7.676   0.422   8.034
    4DIO     O349197   7.746   0.500   7.936
    4DIO    C2149198   7.789   0.423   7.825
    4DIO    C2249199   7.878   0.307   7.870
    4DIO    C2349200   7.797   0.227   7.972
    4DIO     O449201   7.753   0.310   8.079
    4DIO    C2449202   8.011   0.354   7.934
    4DIO    C2549203   8.102   0.439   7.844
    4DIO    C2649204   8.140   0.371   7.713
    4DIO     H149205   6.420   0.298   8.005
    4DIO     H249206   6.461   0.309   7.564
    4DIO     H349207   6.638   0.501   7.674
    4DIO     H449208   6.889   0.516   7.700
    4DIO     H549209   6.888   0.159   7.952
    4DIO     H649210   7.498   0.563   7.866
    4DIO     H749211   7.509   0.222   8.142
    4DIO     H849212   7.666   0.487   8.121
    4DIO     H949213   7.703   0.385   7.770
    4DIO    H1049214   7.842   0.489   7.756
    4DIO    H1149215   7.901   0.243   7.785
    4DIO    H1249216   7.859   0.147   8.016
    4DIO    H1349217   7.711   0.178   7.924
    4DIO    H1449218   7.991   0.412   8.025
    4DIO    H1549219   8.067   0.266   7.965
    4DIO    H1649220   8.054   0.535   7.822
    4DIO    H1749221   8.193   0.462   7.900
    4DIO    H1849222   8.184   0.272   7.732
    4DIO    H1949223   8.054   0.358   7.648
    4DIO    H2049224   8.214   0.431   7.660
    5DIO     F149225   8.633   9.788  10.297
    5DIO     C149226   8.711   9.793  10.407
    5DIO     C249227   8.855   9.784  10.392
    5DIO     C349228   8.944   9.787  10.511
    5DIO     C449229   8.878   9.802  10.643
    5DIO     C549230   8.734   9.811  10.654
    5DIO     F249231   8.679   9.829  10.776
    5DIO     C649232   8.650   9.807  10.537
    5DIO     F349233   8.516   9.815  10.549
    5DIO     C749234   9.090   9.777  10.499
    5DIO     C849235   9.167   9.680  10.580
    5DIO     C949236   9.312   9.670  10.568
    5DIO    C1049237   9.385   9.763  10.483
    5DIO    C1149238   9.312   9.854  10.397
    5DIO    C1249239   9.168   9.862  10.406
    5DIO     F449240   9.103   9.951  10.329
    5DIO     O149241   9.517   9.732  10.459
    5DIO    C1349242   9.611   9.833  10.442
    5DIO     O249243   9.612   9.955  10.473
    5DIO    C1449244   9.740   9.782  10.395
    5DIO    C1549245   9.807   9.666  10.458
    5DIO     F549246   9.744   9.598  10.556
    5DIO    C1649247   9.937   9.618  10.417
    5DIO    C1749248  10.013   9.689  10.314
    5DIO    C1849249   9.944   9.793  10.239
    5DIO    C1949250   9.813   9.840  10.279
    5DIO     F649251   9.750   9.926  10.196
    5DIO    C2049252  10.154   9.648  10.278
    5DIO     O349253  10.224   9.582  10.385
    5DIO    C2149254  10.267   9.672  10.486
    5DIO    C2249255  10.356   9.781  10.427
    5DIO    C2349256  10.275   9.849  10.317
    5DIO     O449257  10.231   9.754  10.221
    5DIO    C2449258  10.489   9.727  10.370
    5DIO    C2549259  10.580   9.653  10.469
    5DIO    C2649260  10.618   9.736  10.591
    5DIO     H149261   8.898   9.775  10.293
    5DIO     H249262   8.939   9.815  10.732
    5DIO     H349263   9.116   9.611  10.645
    5DIO     H449264   9.367   9.594  10.621
    5DIO     H549265   9.366   9.919  10.329
    5DIO     H649266   9.976   9.527  10.462
    5DIO     H749267   9.987   9.834  10.148
    5DIO     H849268  10.144   9.573  10.199
    5DIO     H949269  10.181   9.716  10.536
    5DIO    H1049270  10.320   9.614  10.562
    5DIO    H1149271  10.379   9.855  10.505
    5DIO    H1249272  10.337   9.923  10.265
    5DIO    H1349273  10.189   9.903  10.359
    5DIO    H1449274  10.469   9.659  10.286
    5DIO    H1549275  10.545   9.811  10.328
    5DIO    H1649276  10.532   9.560  10.502
    5DIO    H1749277  10.671   9.624  10.417
    5DIO    H1849278  10.662   9.832  10.561
    5DIO    H1949279  10.532   9.756  10.655
    5DIO    H2049280  10.692   9.682  10.651
    6DIO     F149281   8.683   0.331   5.347
    6DIO     C149282   8.760   0.413   5.421
    6DIO     C249283   8.904   0.396   5.417
    6DIO     C349284   8.993   0.483   5.498
    6DIO     C449285   8.928   0.588   5.580
    6DIO     C549286   8.783   0.602   5.581
    6DIO     F249287   8.728   0.701   5.654
    6DIO     C649288   8.700   0.516   5.502
    6DIO     F349289   8.566   0.529   5.505
    6DIO     C749290   9.140   0.467   5.497
    6DIO     C849291   9.217   0.457   5.623
    6DIO     C949292   9.361   0.442   5.622
    6DIO    C1049293   9.434   0.446   5.496
    6DIO    C1149294   9.361   0.448   5.370
    6DIO    C1249295   9.217   0.461   5.372
    6DIO     F449296   9.152   0.468   5.254
    6DIO     O149297   9.566   0.407   5.501
    6DIO    C1349298   9.661   0.466   5.417
    6DIO     O249299   9.662   0.574   5.352
    6DIO    C1449300   9.790   0.397   5.420
    6DIO    C1549301   9.856   0.360   5.547
    6DIO     F549302   9.793   0.382   5.665
    6DIO    C1649303   9.987   0.298   5.553
    6DIO    C1749304  10.063   0.274   5.430
    6DIO    C1849305   9.994   0.293   5.303
    6DIO    C1949306   9.862   0.355   5.298
    6DIO     F649307   9.800   0.356   5.178
    6DIO    C2049308  10.203   0.220   5.434
    6DIO     O349309  10.273   0.249   5.556
    6DIO    C2149310  10.317   0.384   5.563
    6DIO    C2249311  10.406   0.419   5.444
    6DIO    C2349312  10.325   0.388   5.318
    6DIO     O449313  10.281   0.253   5.318
    6DIO    C2449314  10.538   0.340   5.442
    6DIO    C2549315  10.629   0.359   5.564
    6DIO    C2649316  10.668   0.504   5.590
    6DIO     H149317   8.947   0.319   5.354
    6DIO     H249318   8.988   0.660   5.633
    6DIO     H349319   9.165   0.455   5.718
    6DIO     H449320   9.416   0.426   5.714
    6DIO     H549321   9.416   0.446   5.277
    6DIO     H649322  10.025   0.266   5.649
    6DIO     H749323  10.037   0.257   5.210
    6DIO     H849324  10.194   0.110   5.432
    6DIO     H949325  10.230   0.451   5.567
    6DIO    H1049326  10.370   0.398   5.658
    6DIO    H1149327  10.428   0.526   5.446
    6DIO    H1249328  10.386   0.403   5.228
    6DIO    H1349329  10.239   0.455   5.309
    6DIO    H1449330  10.519   0.233   5.432
    6DIO    H1549331  10.595   0.370   5.353
    6DIO    H1649332  10.582   0.317   5.654
    6DIO    H1749333  10.721   0.301   5.548
    6DIO    H1849334  10.711   0.550   5.501
    6DIO    H1949335  10.581   0.564   5.621
    6DIO    H2049336  10.741   0.509   5.671
    7DIO     F149337   5.341   2.831   8.931
    7DIO     C149338   5.418   2.836   9.041
    7DIO     C249339   5.562   2.827   9.027
    7DIO     C349340   5.651   2.829   9.145
    7DIO     C449341   5.586   2.845   9.277
    7DIO     C549342   5.441   2.854   9.289
    7DIO     F249343   5.386   2.871   9.410
    7DIO     C649344   5.358   2.850   9.171
    7DIO     F349345   5.224   2.857   9.183
    7DIO     C749346   5.798   2.819   9.133
    7DIO     C849347   5.875   2.722   9.214
    7DIO     C949348   6.019   2.712   9.202
    7DIO    C1049349   6.092   2.805   9.118
    7DIO    C1149350   6.019   2.896   9.031
    7DIO    C1249351   5.875   2.904   9.041
    7DIO     F449352   5.810   2.993   8.963
    7DIO     O149353   6.224   2.774   9.093
    7DIO    C1349354   6.319   2.875   9.077
    7DIO     O249355   6.320   2.998   9.108
    7DIO    C1449356   6.448   2.825   9.029
    7DIO    C1549357   6.514   2.708   9.092
    7DIO     F549358   6.451   2.640   9.190
    7DIO    C1649359   6.645   2.661   9.051
    7DIO    C1749360   6.721   2.732   8.949
    7DIO    C1849361   6.652   2.836   8.873
    7DIO    C1949362   6.520   2.882   8.914
    7DIO     F649363   6.458   2.969   8.831
    7DIO    C2049364   6.861   2.691   8.913
    7DIO     O349365   6.931   2.624   9.019
    7DIO    C2149366   6.975   2.714   9.120
    7DIO    C2249367   7.064   2.824   9.062
    7DIO    C2349368   6.983   2.892   8.951
    7DIO     O449369   6.939   2.797   8.855
    7DIO    C2449370   7.196   2.769   9.004
    7DIO    C2549371   7.287   2.696   9.103
    7DIO    C2649372   7.326   2.779   9.225
    7DIO     H149373   5.605   2.817   8.928
    7DIO     H249374   5.646   2.857   9.366
    7DIO     H349375   5.823   2.653   9.280
    7DIO     H449376   6.074   2.636   9.255
    7DIO     H549377   6.074   2.961   8.964
    7DIO     H649378   6.683   2.570   9.096
    7DIO     H749379   6.695   2.877   8.783
    7DIO     H849380   6.852   2.615   8.833
    7DIO     H949381   6.888   2.758   9.171
    7DIO    H1049382   7.028   2.656   9.196
    7DIO    H1149383   7.086   2.897   9.139
    7DIO    H1249384   7.044   2.966   8.899
    7DIO    H1349385   6.897   2.945   8.993
    7DIO    H1449386   7.177   2.702   8.920
    7DIO    H1549387   7.253   2.854   8.963
    7DIO    H1649388   7.240   2.602   9.136
    7DIO    H1749389   7.379   2.666   9.051
    7DIO    H1849390   7.369   2.874   9.195
    7DIO    H1949391   7.239   2.798   9.289
    7DIO    H2049392   7.399   2.725   9.285
    8DIO     F149393   0.184  -0.133   9.439
    8DIO     C149394   0.261  -0.176   9.541
    8DIO     C249395   0.406  -0.178   9.524
    8DIO     C349396   0.494  -0.226   9.632
    8DIO     C449397   0.429  -0.269   9.758
    8DIO     C549398   0.285  -0.265   9.772
    8DIO     F249399   0.229  -0.301   9.890
    8DIO     C649400   0.201  -0.219   9.664
    8DIO     F349401   0.067  -0.217   9.678
    8DIO     C749402   0.641  -0.230   9.617
    8DIO     C849403   0.718  -0.352   9.648
    8DIO     C949404   0.863  -0.356   9.634
    8DIO    C1049405   0.935  -0.236   9.597
    8DIO    C1149406   0.863  -0.117   9.557
    8DIO    C1249407   0.719  -0.114   9.570
    8DIO     F449408   0.654   0.000   9.538
    8DIO     O149409   1.067  -0.253   9.562
    8DIO    C1349410   1.162  -0.155   9.590
    8DIO     O249411   1.163  -0.058   9.670
    8DIO    C1449412   1.291  -0.181   9.525
    8DIO    C1549413   1.357  -0.313   9.533
    8DIO     F549414   1.295  -0.416   9.592
    8DIO    C1649415   1.488  -0.338   9.475
    8DIO    C1749416   1.564  -0.230   9.413
    8DIO    C1849417   1.495  -0.104   9.389
    8DIO    C1949418   1.363  -0.079   9.445
    8DIO     F649419   1.301   0.034   9.407
    8DIO    C2049420   1.705  -0.252   9.363
    8DIO     O349421   1.774  -0.357   9.430
    8DIO    C2149422   1.818  -0.319   9.560
    8DIO    C2249423   1.907  -0.196   9.554
    8DIO    C2349424   1.826  -0.087   9.483
    8DIO     O449425   1.782  -0.132   9.356
    8DIO    C2449426   2.040  -0.220   9.479
    8DIO    C2549427   2.130  -0.329   9.537
    8DIO    C2649428   2.169  -0.306   9.683
    8DIO     H149429   0.448  -0.144   9.430
    8DIO     H249430   0.489  -0.295   9.844
    8DIO     H349431   0.666  -0.442   9.678
    8DIO     H449432   0.918  -0.448   9.649
    8DIO     H549433   0.917  -0.029   9.525
    8DIO     H649434   1.526  -0.439   9.476
    8DIO     H749435   1.538  -0.028   9.324
    8DIO     H849436   1.695  -0.286   9.259
    8DIO     H949437   1.731  -0.301   9.625
    8DIO    H1049438   1.871  -0.405   9.604
    8DIO    H1149439   1.929  -0.162   9.656
    8DIO    H1249440   1.887   0.003   9.468
    8DIO    H1349441   1.740  -0.056   9.544
    8DIO    H1449442   2.020  -0.245   9.374
    8DIO    H1549443   2.096  -0.126   9.478
    8DIO    H1649444   2.083  -0.427   9.527
    8DIO    H1749445   2.222  -0.333   9.477
    8DIO    H1849446   2.213  -0.207   9.697
    8DIO    H1949447   2.082  -0.315   9.749
    8DIO    H2049448   2.242  -0.381   9.714
    9DIO     F149449   0.478   4.811   1.381
    9DIO     C149450   0.556   4.909   1.432
    9DIO     C249451   0.700   4.892   1.433
    9DIO     C349452   0.789   4.996   1.490
    9DIO     C449453   0.723   5.117   1.544
    9DIO     C549454   0.579   5.132   1.541
    9DIO     F249455   0.524   5.246   1.587
    9DIO     C649456   0.495   5.029   1.486
    9DIO     F349457   0.361   5.043   1.485
    9DIO     C749458   0.935   4.980   1.493
    9DIO     C849459   1.012   5.001   1.617
    9DIO     C949460   1.157   4.986   1.620
    9DIO    C1049461   1.230   4.960   1.497
    9DIO    C1149462   1.157   4.931   1.375
    9DIO    C1249463   1.013   4.943   1.373
    9DIO     F449464   0.948   4.921   1.257
    9DIO     O149465   1.362   4.923   1.511
    9DIO    C1349466   1.456   4.960   1.416
    9DIO     O249467   1.457   5.048   1.326
    9DIO    C1449468   1.585   4.893   1.436
    9DIO    C1549469   1.652   4.889   1.568
    9DIO     F549470   1.589   4.939   1.677
    9DIO    C1649471   1.782   4.830   1.588
    9DIO    C1749472   1.858   4.777   1.475
    9DIO    C1849473   1.789   4.764   1.347
    9DIO    C1949474   1.658   4.822   1.328
    9DIO     F649475   1.595   4.794   1.211
    9DIO    C2049476   1.999   4.725   1.493
    9DIO     O349477   2.069   4.783   1.604
    9DIO    C2149478   2.112   4.916   1.577
    9DIO    C2249479   2.201   4.921   1.453
    9DIO    C2349480   2.120   4.860   1.339
    9DIO     O449481   2.076   4.729   1.372
    9DIO    C2449482   2.334   4.844   1.471
    9DIO    C2549483   2.425   4.892   1.585
    9DIO    C2649484   2.463   5.039   1.574
    9DIO     H149485   0.743   4.802   1.391
    9DIO     H249486   0.784   5.201   1.578
    9DIO     H349487   0.961   5.023   1.710
    9DIO     H449488   1.212   4.994   1.713
    9DIO     H549489   1.211   4.906   1.285
    9DIO     H649490   1.821   4.822   1.689
    9DIO     H749491   1.832   4.706   1.267
    9DIO     H849492   1.989   4.619   1.518
    9DIO     H949493   2.026   4.982   1.565
    9DIO    H1049494   2.165   4.952   1.666
    9DIO    H1149495   2.224   5.025   1.429
    9DIO    H1249496   2.182   4.852   1.248
    9DIO    H1349497   2.034   4.923   1.314
    9DIO    H1449498   2.314   4.737   1.487
    9DIO    H1549499   2.390   4.851   1.377
    9DIO    H1649500   2.377   4.874   1.682
    9DIO    H1749501   2.516   4.832   1.583
    9DIO    H1849502   2.507   5.062   1.477
    9DIO    H1949503   2.377   5.104   1.589
    9DIO    H2049504   2.537   5.064   1.651
   10DIO     F149505   5.999   4.304   0.701
   10DIO     C149506   6.077   4.195   0.690
   10DIO     C249507   6.221   4.210   0.683
   10DIO     C349508   6.310   4.093   0.668
   10DIO     C449509   6.244   3.960   0.664
   10DIO     C549510   6.100   3.947   0.671
   10DIO     F249511   6.044   3.825   0.671
   10DIO     C649512   6.016   4.064   0.685
   10DIO     F349513   5.882   4.051   0.690
   10DIO     C749514   6.456   4.106   0.660
   10DIO     C849515   6.533   4.041   0.552
   10DIO     C949516   6.678   4.053   0.544
   10DIO    C1049517   6.750   4.124   0.648
   10DIO    C1149518   6.678   4.196   0.751
   10DIO    C1249519   6.534   4.185   0.758
   10DIO     F449520   6.469   4.249   0.858
   10DIO     O149521   6.883   4.152   0.622
   10DIO    C1349522   6.977   4.154   0.724
   10DIO     O249523   6.978   4.105   0.840
   10DIO    C1449524   7.106   4.208   0.681
   10DIO    C1549525   7.172   4.163   0.557
   10DIO     F549526   7.110   4.076   0.474
   10DIO    C1649527   7.303   4.211   0.516
   10DIO    C1749528   7.379   4.302   0.601
   10DIO    C1849529   7.310   4.361   0.715
   10DIO    C1949530   7.179   4.314   0.755
   10DIO     F649531   7.116   4.383   0.853
   10DIO    C2049532   7.520   4.343   0.565
   10DIO     O349533   7.589   4.248   0.484
   10DIO    C2149534   7.633   4.135   0.558
   10DIO    C2249535   7.722   4.176   0.675
   10DIO    C2349536   7.641   4.275   0.759
   10DIO     O449537   7.597   4.385   0.679
   10DIO    C2449538   7.855   4.241   0.630
   10DIO    C2549539   7.945   4.154   0.542
   10DIO    C2649540   7.984   4.021   0.606
   10DIO     H149541   6.263   4.310   0.688
   10DIO     H249542   6.305   3.870   0.663
   10DIO     H349543   6.482   3.986   0.474
   10DIO     H449544   6.733   4.012   0.461
   10DIO     H549545   6.732   4.253   0.826
   10DIO     H649546   7.341   4.180   0.419
   10DIO     H749547   7.353   4.444   0.769
   10DIO     H849548   7.510   4.433   0.503
   10DIO     H949549   7.546   4.078   0.594
   10DIO    H1049550   7.686   4.068   0.489
   10DIO    H1149551   7.745   4.088   0.736
   10DIO    H1249552   7.702   4.316   0.840
   10DIO    H1349553   7.555   4.226   0.805
   10DIO    H1449554   7.835   4.334   0.575
   10DIO    H1549555   7.911   4.270   0.720
   10DIO    H1649556   7.898   4.135   0.445
   10DIO    H1749557   8.037   4.210   0.521
   10DIO    H1849558   8.028   4.037   0.705
   10DIO    H1949559   7.897   3.955   0.616
   10DIO    H2049560   8.058   3.970   0.544
   11DIO     F149561   7.040   6.627  -0.812
   11DIO     C149562   7.118   6.521  -0.782
   11DIO     C249563   7.262   6.533  -0.794
   11DIO     C349564   7.351   6.418  -0.764
   11DIO     C449565   7.285   6.293  -0.719
   11DIO     C549566   7.141   6.284  -0.707
   11DIO     F249567   7.085   6.170  -0.662
   11DIO     C649568   7.057   6.397  -0.738
   11DIO     F349569   6.923   6.387  -0.728
   11DIO     C749570   7.497   6.428  -0.777
   11DIO     C849571   7.574   6.326  -0.852
   11DIO     C949572   7.719   6.335  -0.865
   11DIO    C1049573   7.791   6.439  -0.794
   11DIO    C1149574   7.719   6.545  -0.725
   11DIO    C1249575   7.575   6.537  -0.715
   11DIO     F449576   7.510   6.633  -0.646
   11DIO     O149577   7.924   6.456  -0.829
   11DIO    C1349578   8.018   6.495  -0.735
   11DIO     O249579   8.019   6.494  -0.609
   11DIO    C1449580   8.147   6.530  -0.795
   11DIO    C1549581   8.214   6.441  -0.894
   11DIO     F549582   8.151   6.330  -0.938
   11DIO    C1649583   8.344   6.470  -0.949
   11DIO    C1749584   8.420   6.587  -0.904
   11DIO    C1849585   8.351   6.684  -0.820
   11DIO    C1949586   8.220   6.656  -0.766
   11DIO     F649587   8.157   6.756  -0.701
   11DIO    C2049588   8.561   6.612  -0.953
   11DIO     O349589   8.631   6.494  -0.992
   11DIO    C2149590   8.674   6.416  -0.882
   11DIO    C2249591   8.763   6.498  -0.789
   11DIO    C2349592   8.682   6.621  -0.748
   11DIO     O449593   8.638   6.693  -0.863
   11DIO    C2449594   8.896   6.541  -0.855
   11DIO    C2549595   8.987   6.428  -0.904
   11DIO    C2649596   9.025   6.329  -0.795
   11DIO     H149597   7.304   6.627  -0.826
   11DIO     H249598   7.346   6.209  -0.686
   11DIO     H349599   7.523   6.246  -0.904
   11DIO     H449600   7.774   6.266  -0.927
   11DIO     H549601   7.773   6.625  -0.677
   11DIO     H649602   8.382   6.406  -1.028
   11DIO     H749603   8.394   6.782  -0.802
   11DIO     H849604   8.551   6.672  -1.044
   11DIO     H949605   8.588   6.377  -0.827
   11DIO    H1049606   8.727   6.328  -0.921
   11DIO    H1149607   8.786   6.439  -0.699
   11DIO    H1249608   8.743   6.689  -0.688
   11DIO    H1349609   8.596   6.593  -0.686
   11DIO    H1449610   8.876   6.607  -0.940
   11DIO    H1549611   8.952   6.601  -0.782
   11DIO    H1649612   8.939   6.374  -0.987
   11DIO    H1749613   9.078   6.472  -0.944
   11DIO    H1849614   9.069   6.380  -0.709
   11DIO    H1949615   8.938   6.271  -0.761
   11DIO    H2049616   9.099   6.257  -0.833
   12DIO     F149617   5.024   8.253   9.883
   12DIO     C149618   5.102   8.350   9.831
   12DIO     C249619   5.246   8.341   9.846
   12DIO     C349620   5.335   8.447   9.792
   12DIO     C449621   5.269   8.559   9.722
   12DIO     C549622   5.125   8.566   9.709
   12DIO     F249623   5.070   8.668   9.640
   12DIO     C649624   5.041   8.461   9.763
   12DIO     F349625   4.907   8.469   9.751
   12DIO     C749626   5.481   8.440   9.807
   12DIO     C849627   5.558   8.555   9.859
   12DIO     C949628   5.703   8.549   9.873
   12DIO    C1049629   5.776   8.432   9.826
   12DIO    C1149630   5.703   8.315   9.781
   12DIO    C1249631   5.559   8.320   9.769
   12DIO     F449632   5.494   8.212   9.722
   12DIO     O149633   5.908   8.423   9.864
   12DIO    C1349634   6.002   8.365   9.780
   12DIO     O249635   6.003   8.340   9.656
   12DIO    C1449636   6.131   8.344   9.846
   12DIO    C1549637   6.198   8.451   9.924
   12DIO     F549638   6.135   8.569   9.944
   12DIO    C1649639   6.328   8.434   9.985
   12DIO    C1749640   6.404   8.311   9.964
   12DIO    C1849641   6.335   8.198   9.903
   12DIO    C1949642   6.204   8.215   9.844
   12DIO     F649643   6.141   8.103   9.801
   12DIO    C2049644   6.545   8.296  10.017
   12DIO     O349645   6.615   8.420  10.032
   12DIO    C2149646   6.658   8.474   9.907
   12DIO    C2249647   6.747   8.374   9.833
   12DIO    C2349648   6.666   8.245   9.819
   12DIO     O449649   6.622   8.199   9.946
   12DIO    C2449650   6.880   8.345   9.907
   12DIO    C2549651   6.971   8.466   9.931
   12DIO    C2649652   7.009   8.541   9.804
   12DIO     H149653   5.289   8.255   9.897
   12DIO     H249654   5.330   8.634   9.672
   12DIO     H349655   5.507   8.644   9.893
   12DIO     H449656   5.758   8.629   9.920
   12DIO     H549657   5.757   8.226   9.751
   12DIO     H649658   6.367   8.513  10.048
   12DIO     H749659   6.378   8.099   9.905
   12DIO     H849660   6.535   8.257  10.119
   12DIO     H949661   6.572   8.500   9.846
   12DIO    H1049662   6.711   8.567   9.927
   12DIO    H1149663   6.770   8.412   9.733
   12DIO    H1249664   6.728   8.166   9.774
   12DIO    H1349665   6.580   8.260   9.753
   12DIO    H1449666   6.860   8.298  10.004
   12DIO    H1549667   6.936   8.271   9.848
   12DIO    H1649668   6.923   8.536  10.001
   12DIO    H1749669   7.062   8.431   9.980
   12DIO    H1849670   7.053   8.473   9.730
   12DIO    H1949671   6.923   8.590   9.758
   12DIO    H2049672   7.083   8.618   9.827
   13DIO     F149673   8.600   8.066   3.501
   13DIO     C149674   8.677   8.008   3.408
   13DIO     C249675   8.821   8.023   3.415
   13DIO     C349676   8.910   7.963   3.313
   13DIO     C449677   8.845   7.885   3.205
   13DIO     C549678   8.700   7.872   3.200
   13DIO     F249679   8.645   7.797   3.102
   13DIO     C649680   8.617   7.932   3.301
   13DIO     F349681   8.483   7.920   3.294
   13DIO     C749682   9.056   7.978   3.319
   13DIO     C849683   9.134   8.023   3.201
   13DIO     C949684   9.278   8.037   3.206
   13DIO    C1049685   9.351   7.998   3.325
   13DIO    C1149686   9.278   7.960   3.446
   13DIO    C1249687   9.134   7.948   3.441
   13DIO     F449688   9.069   7.908   3.552
   13DIO     O149689   9.483   8.036   3.332
   13DIO    C1349690   9.578   7.956   3.396
   13DIO     O249691   9.578   7.834   3.428
   13DIO    C1449692   9.707   8.024   3.412
   13DIO    C1549693   9.773   8.094   3.301
   13DIO     F549694   9.710   8.106   3.182
   13DIO    C1649695   9.904   8.156   3.313
   13DIO    C1749696   9.980   8.144   3.438
   13DIO    C1849697   9.911   8.090   3.554
   13DIO    C1949698   9.779   8.029   3.541
   13DIO     F649699   9.717   7.994   3.656
   13DIO    C2049700  10.120   8.197   3.449
   13DIO     O349701  10.190   8.204   3.324
   13DIO    C2149702  10.234   8.076   3.279
   13DIO    C2249703  10.323   8.009   3.383
   13DIO    C2349704  10.242   8.003   3.513
   13DIO     O449705  10.198   8.133   3.551
   13DIO    C2449706  10.455   8.084   3.407
   13DIO    C2549707  10.546   8.100   3.285
   13DIO    C2649708  10.584   7.968   3.219
   13DIO     H149709   8.864   8.080   3.498
   13DIO     H249710   8.905   7.831   3.134
   13DIO     H349711   9.082   8.051   3.110
   13DIO     H449712   9.333   8.078   3.123
   13DIO     H549713   9.333   7.936   3.536
   13DIO     H649714   9.942   8.214   3.230
   13DIO     H749715   9.954   8.098   3.653
   13DIO     H849716  10.111   8.302   3.482
   13DIO     H949717  10.147   8.013   3.256
   13DIO    H1049718  10.286   8.090   3.184
   13DIO    H1149719  10.345   7.906   3.351
   13DIO    H1249720  10.303   7.963   3.595
   13DIO    H1349721  10.156   7.936   3.502
   13DIO    H1449722  10.435   8.184   3.448
   13DIO    H1549723  10.512   8.030   3.485
   13DIO    H1649724  10.499   8.166   3.211
   13DIO    H1749725  10.638   8.151   3.316
   13DIO    H1849726  10.628   7.899   3.291
   13DIO    H1949727  10.498   7.920   3.173
   13DIO    H2049728  10.658   7.986   3.140
   14DIO     F149729   3.687  10.783   4.739
   14DIO     C149730   3.764  10.826   4.841
   14DIO     C249731   3.908  10.813   4.830
   14DIO     C349732   3.997  10.857   4.940
   14DIO     C449733   3.932  10.918   5.058
   14DIO     C549734   3.787  10.931   5.066
   14DIO     F249735   3.732  10.990   5.173
   14DIO     C649736   3.704  10.886   4.957
   14DIO     F349737   3.570  10.897   4.966
   14DIO     C749738   4.144  10.843   4.932
   14DIO     C849739   4.221  10.781   5.043
   14DIO     C949740   4.365  10.768   5.035
   14DIO    C1049741   4.438  10.825   4.923
   14DIO    C1149742   4.366  10.880   4.810
   14DIO    C1249743   4.221  10.890   4.816
   14DIO     F449744   4.157  10.947   4.712
   14DIO     O149745   4.570  10.788   4.911
   14DIO    C1349746   4.665  10.876   4.860
   14DIO     O249747   4.666  11.001   4.846
   14DIO    C1449748   4.794  10.812   4.833
   14DIO    C1549749   4.860  10.726   4.934
   14DIO     F549750   4.798  10.696   5.049
   14DIO    C1649751   4.991  10.667   4.912
   14DIO    C1749752   5.067  10.697   4.791
   14DIO    C1849753   4.998  10.767   4.684
   14DIO    C1949754   4.866  10.825   4.705
   14DIO     F649755   4.804  10.877   4.597
   14DIO    C2049756   5.207  10.645   4.772
   14DIO     O349757   5.277  10.621   4.894
   14DIO    C2149758   5.321  10.741   4.958
   14DIO    C2249759   5.410  10.822   4.864
   14DIO    C2349760   5.329  10.847   4.737
   14DIO     O449761   5.285  10.724   4.680
   14DIO    C2449762   5.543  10.751   4.830
   14DIO    C2549763   5.633  10.718   4.948
   14DIO    C2649764   5.672  10.838   5.033
   14DIO     H149765   3.951  10.769   4.741
   14DIO     H249766   3.992  10.961   5.137
   14DIO     H349767   4.169  10.740   5.128
   14DIO     H449768   4.421  10.715   5.112
   14DIO     H549769   4.420  10.917   4.724
   14DIO     H649770   5.029  10.597   4.986
   14DIO     H749771   5.041  10.774   4.584
   14DIO     H849772   5.198  10.547   4.724
   14DIO     H949773   5.234  10.800   4.989
   14DIO    H1049774   5.374  10.713   5.049
   14DIO    H1149775   5.432  10.919   4.911
   14DIO    H1249776   5.390  10.898   4.662
   14DIO    H1349777   5.243  10.912   4.757
   14DIO    H1449778   5.523  10.659   4.775
   14DIO    H1549779   5.599  10.816   4.761
   14DIO    H1649780   5.586  10.642   5.012
   14DIO    H1749781   5.725  10.672   4.910
   14DIO    H1849782   5.716  10.917   4.971
   14DIO    H1949783   5.585  10.879   5.086
   14DIO    H2049784   5.745  10.809   5.108
   15DIO     F149785   0.577   6.226   1.355
   15DIO     C149786   0.655   6.274   1.454
   15DIO     C249787   0.799   6.260   1.444
   15DIO     C349788   0.888   6.309   1.552
   15DIO     C449789   0.822   6.374   1.668
   15DIO     C549790   0.678   6.387   1.675
   15DIO     F249791   0.623   6.451   1.779
   15DIO     C649792   0.594   6.338   1.568
   15DIO     F349793   0.461   6.349   1.576
   15DIO     C749794   1.034   6.294   1.545
   15DIO     C849795   1.111   6.237   1.657
   15DIO     C949796   1.256   6.223   1.651
   15DIO    C1049797   1.329   6.275   1.536
   15DIO    C1149798   1.256   6.325   1.421
   15DIO    C1249799   1.112   6.337   1.427
   15DIO     F449800   1.047   6.388   1.320
   15DIO     O149801   1.461   6.238   1.526
   15DIO    C1349802   1.555   6.324   1.471
   15DIO     O249803   1.556   6.449   1.452
   15DIO    C1449804   1.685   6.259   1.447
   15DIO    C1549805   1.751   6.177   1.551
   15DIO     F549806   1.688   6.152   1.668
   15DIO    C1649807   1.882   6.117   1.532
   15DIO    C1749808   1.957   6.142   1.410
   15DIO    C1849809   1.889   6.208   1.299
   15DIO    C1949810   1.757   6.267   1.318
   15DIO     F649811   1.695   6.314   1.208
   15DIO    C2049812   2.098   6.090   1.393
   15DIO     O349813   2.168   6.071   1.516
   15DIO    C2149814   2.212   6.193   1.574
   15DIO    C2249815   2.300   6.271   1.478
   15DIO    C2349816   2.220   6.290   1.349
   15DIO     O449817   2.175   6.165   1.298
   15DIO    C2449818   2.433   6.198   1.446
   15DIO    C2549819   2.524   6.169   1.566
   15DIO    C2649820   2.562   6.293   1.646
   15DIO     H149821   0.842   6.212   1.357
   15DIO     H249822   0.883   6.421   1.745
   15DIO     H349823   1.060   6.199   1.745
   15DIO     H449824   1.311   6.174   1.729
   15DIO     H549825   1.311   6.359   1.334
   15DIO     H649826   1.920   6.050   1.608
   15DIO     H749827   1.932   6.210   1.200
   15DIO     H849828   2.088   5.990   1.349
   15DIO     H949829   2.125   6.253   1.604
   15DIO    H1049830   2.264   6.169   1.667
   15DIO    H1149831   2.323   6.369   1.520
   15DIO    H1249832   2.281   6.338   1.272
   15DIO    H1349833   2.134   6.356   1.367
   15DIO    H1449834   2.413   6.103   1.395
   15DIO    H1549835   2.490   6.260   1.375
   15DIO    H1649836   2.477   6.096   1.633
   15DIO    H1749837   2.616   6.122   1.529
   15DIO    H1849838   2.606   6.370   1.581
   15DIO    H1949839   2.476   6.336   1.697
   15DIO    H2049840   2.636   6.267   1.722
   16DIO     F149841   2.015   7.600   5.689
   16DIO     C149842   2.093   7.532   5.603
   16DIO     C249843   2.237   7.548   5.609
   16DIO     C349844   2.326   7.477   5.515
   16DIO     C449845   2.260   7.387   5.416
   16DIO     C549846   2.116   7.373   5.412
   16DIO     F249847   2.060   7.288   5.324
   16DIO     C649848   2.032   7.445   5.505
   16DIO     F349849   1.898   7.432   5.500
   16DIO     C749850   2.472   7.492   5.518
   16DIO     C849851   2.549   7.524   5.396
   16DIO     C949852   2.694   7.538   5.400
   16DIO    C1049853   2.766   7.513   5.523
   16DIO    C1149854   2.694   7.489   5.646
   16DIO    C1249855   2.550   7.477   5.643
   16DIO     F449856   2.485   7.449   5.758
   16DIO     O149857   2.899   7.552   5.525
   16DIO    C1349858   2.993   7.479   5.597
   16DIO     O249859   2.994   7.362   5.643
   16DIO    C1449860   3.122   7.548   5.606
   16DIO    C1549861   3.188   7.606   5.487
   16DIO     F549862   3.126   7.604   5.367
   16DIO    C1649863   3.319   7.668   5.493
   16DIO    C1749864   3.395   7.670   5.617
   16DIO    C1849865   3.326   7.630   5.739
   16DIO    C1949866   3.195   7.568   5.734
   16DIO     F649867   3.132   7.547   5.851
   16DIO    C2049868   3.536   7.725   5.623
   16DIO     O349869   3.605   7.717   5.498
   16DIO    C2149870   3.649   7.585   5.468
   16DIO    C2249871   3.738   7.530   5.579
   16DIO    C2349872   3.657   7.539   5.708
   16DIO     O449873   3.613   7.672   5.731
   16DIO    C2449874   3.871   7.607   5.594
   16DIO    C2549875   3.961   7.610   5.471
   16DIO    C2649876   4.000   7.471   5.420
   16DIO     H149877   2.279   7.613   5.684
   16DIO     H249878   2.321   7.325   5.351
   16DIO     H349879   2.498   7.541   5.303
   16DIO     H449880   2.749   7.570   5.312
   16DIO     H549881   2.748   7.475   5.739
   16DIO     H649882   3.357   7.716   5.404
   16DIO     H749883   3.369   7.650   5.837
   16DIO     H849884   3.526   7.832   5.643
   16DIO     H949885   3.562   7.520   5.452
   16DIO    H1049886   3.702   7.588   5.372
   16DIO    H1149887   3.761   7.425   5.559
   16DIO    H1249888   3.718   7.509   5.794
   16DIO    H1349889   3.571   7.471   5.705
   16DIO    H1449890   3.851   7.711   5.623
   16DIO    H1549891   3.927   7.563   5.677
   16DIO    H1649892   3.914   7.666   5.390
   16DIO    H1749893   4.053   7.664   5.496
   16DIO    H1849894   4.044   7.411   5.500
   16DIO    H1949895   3.913   7.418   5.380
   16DIO    H2049896   4.074   7.480   5.340
   17DIO     F149897  -0.282   6.572   7.942
   17DIO     C149898  -0.205   6.518   8.038
   17DIO     C249899  -0.061   6.518   8.021
   17DIO     C349900   0.028   6.458   8.123
   17DIO     C449901  -0.037   6.401   8.243
   17DIO     C549902  -0.182   6.403   8.258
   17DIO     F249903  -0.237   6.354   8.371
   17DIO     C649904  -0.265   6.461   8.156
   17DIO     F349905  -0.399   6.461   8.170
   17DIO     C749906   0.175   6.455   8.107
   17DIO     C849907   0.252   6.330   8.125
   17DIO     C949908   0.396   6.328   8.110
   17DIO    C1049909   0.469   6.451   8.087
   17DIO    C1149910   0.396   6.575   8.061
   17DIO    C1249911   0.252   6.576   8.074
   17DIO     F449912   0.187   6.693   8.055
   17DIO     O149913   0.601   6.438   8.050
   17DIO    C1349914   0.696   6.533   8.089
   17DIO     O249915   0.697   6.621   8.180
   17DIO    C1449916   0.825   6.515   8.022
   17DIO    C1549917   0.891   6.383   8.015
   17DIO     F549918   0.828   6.273   8.062
   17DIO    C1649919   1.022   6.364   7.955
   17DIO    C1749920   1.098   6.478   7.905
   17DIO    C1849921   1.029   6.606   7.895
   17DIO    C1949922   0.897   6.625   7.954
   17DIO     F649923   0.835   6.742   7.929
   17DIO    C2049924   1.238   6.462   7.852
   17DIO     O349925   1.308   6.350   7.908
   17DIO    C2149926   1.352   6.373   8.041
   17DIO    C2249927   1.441   6.497   8.049
   17DIO    C2349928   1.360   6.613   7.991
   17DIO     O449929   1.316   6.582   7.859
   17DIO    C2449930   1.573   6.481   7.972
   17DIO    C2549931   1.664   6.366   8.017
   17DIO    C2649932   1.703   6.373   8.164
   17DIO     H149933  -0.018   6.562   7.932
   17DIO     H249934   0.023   6.365   8.326
   17DIO     H349935   0.200   6.237   8.145
   17DIO     H449936   0.451   6.235   8.115
   17DIO     H549937   0.451   6.665   8.038
   17DIO     H649938   1.060   6.263   7.944
   17DIO     H749939   1.072   6.689   7.840
   17DIO     H849940   1.229   6.440   7.745
   17DIO     H949941   1.265   6.384   8.107
   17DIO    H1049942   1.405   6.283   8.075
   17DIO    H1149943   1.463   6.519   8.154
   17DIO    H1249944   1.421   6.703   7.986
   17DIO    H1349945   1.274   6.636   8.055
   17DIO    H1449946   1.554   6.468   7.865
   17DIO    H1549947   1.630   6.575   7.981
   17DIO    H1649948   1.617   6.270   7.996
   17DIO    H1749949   1.756   6.369   7.957
   17DIO    H1849950   1.746   6.470   8.189
   17DIO    H1949951   1.616   6.356   8.229
   17DIO    H2049952   1.776   6.295   8.187
   18DIO     F149953   8.637   6.417   3.753
   18DIO     C149954   8.715   6.308   3.767
   18DIO     C249955   8.859   6.322   3.756
   18DIO     C349956   8.948   6.204   3.769
   18DIO     C449957   8.882   6.073   3.795
   18DIO     C549958   8.738   6.063   3.805
   18DIO     F249959   8.683   5.943   3.832
   18DIO     C649960   8.654   6.179   3.791
   18DIO     F349961   8.521   6.168   3.800
   18DIO     C749962   9.094   6.215   3.758
   18DIO     C849963   9.171   6.126   3.668
   18DIO     C949964   9.316   6.137   3.657
   18DIO    C1049965   9.389   6.229   3.742
   18DIO    C1149966   9.316   6.323   3.826
   18DIO    C1249967   9.172   6.314   3.835
   18DIO     F449968   9.107   6.398   3.918
   18DIO     O149969   9.521   6.251   3.710
   18DIO    C1349970   9.615   6.276   3.809
   18DIO     O249971   9.616   6.255   3.933
   18DIO    C1449972   9.745   6.319   3.755
   18DIO    C1549973   9.811   6.247   3.644
   18DIO     F549974   9.748   6.143   3.584
   18DIO    C1649975   9.942   6.284   3.593
   18DIO    C1749976  10.017   6.392   3.656
   18DIO    C1849977   9.949   6.475   3.753
   18DIO    C1949978   9.817   6.439   3.803
   18DIO     F649979   9.755   6.529   3.882
   18DIO    C2049980  10.158   6.424   3.612
   18DIO     O349981  10.228   6.313   3.554
   18DIO    C2149982  10.272   6.219   3.652
   18DIO    C2249983  10.360   6.286   3.756
   18DIO    C2349984  10.280   6.402   3.815
   18DIO     O449985  10.235   6.490   3.713
   18DIO    C2449986  10.493   6.339   3.698
   18DIO    C2549987  10.584   6.234   3.632
   18DIO    C2649988  10.622   6.120   3.725
   18DIO     H149989   8.902   6.420   3.739
   18DIO     H249990   8.943   5.986   3.814
   18DIO     H349991   9.120   6.055   3.604
   18DIO     H449992   9.371   6.078   3.585
   18DIO     H549993   9.371   6.395   3.886
   18DIO     H649994   9.980   6.232   3.506
   18DIO     H749995   9.992   6.569   3.787
   18DIO     H849996  10.148   6.497   3.530
   18DIO     H949997  10.185   6.172   3.700
   18DIO    H1049998  10.324   6.139   3.600
   18DIO    H1149999  10.383   6.215   3.836
   18DIO    H1250000  10.341   6.460   3.885
   18DIO    H1350001  10.194   6.365   3.872
   18DIO    H1450002  10.473   6.418   3.623
   18DIO    H1550003  10.550   6.388   3.778
   18DIO    H1650004  10.537   6.194   3.542
   18DIO    H1750005  10.676   6.285   3.599
   18DIO    H1850006  10.666   6.157   3.818
   18DIO    H1950007  10.536   6.058   3.750
   18DIO    H2050008  10.696   6.056   3.676
   19DIO     F150009   1.320   1.650   9.581
   19DIO     C150010   1.397   1.729   9.504
   19DIO     C250011   1.541   1.724   9.521
   19DIO     C350012   1.630   1.811   9.440
   19DIO     C450013   1.565   1.900   9.342
   19DIO     C550014   1.420   1.903   9.327
   19DIO     F250015   1.365   1.982   9.234
   19DIO     C650016   1.337   1.817   9.408
   19DIO     F350017   1.203   1.821   9.394
   19DIO     C750018   1.777   1.809   9.456
   19DIO     C850019   1.854   1.934   9.475
   19DIO     C950020   1.998   1.932   9.490
   19DIO    C1050021   2.071   1.807   9.477
   19DIO    C1150022   1.999   1.681   9.466
   19DIO    C1250023   1.854   1.683   9.453
   19DIO     F450024   1.790   1.566   9.437
   19DIO     O150025   2.203   1.808   9.516
   19DIO    C1350026   2.298   1.729   9.451
   19DIO     O250027   2.299   1.672   9.339
   19DIO    C1450028   2.427   1.727   9.521
   19DIO    C1550029   2.493   1.851   9.566
   19DIO     F550030   2.431   1.970   9.553
   19DIO    C1650031   2.624   1.852   9.629
   19DIO    C1750032   2.700   1.728   9.643
   19DIO    C1850033   2.631   1.603   9.615
   19DIO    C1950034   2.499   1.602   9.554
   19DIO     F650035   2.437   1.483   9.544
   19DIO    C2050036   2.840   1.728   9.698
   19DIO     O350037   2.910   1.852   9.678
   19DIO    C2150038   2.954   1.869   9.543
   19DIO    C2250039   3.043   1.752   9.500
   19DIO    C2350040   2.962   1.625   9.522
   19DIO     O450041   2.918   1.615   9.657
   19DIO    C2450042   3.176   1.745   9.578
   19DIO    C2550043   3.266   1.868   9.568
   19DIO    C2650044   3.305   1.905   9.426
   19DIO     H150045   1.584   1.656   9.593
   19DIO     H250046   1.625   1.959   9.273
   19DIO     H350047   1.802   2.028   9.484
   19DIO     H450048   2.054   2.022   9.513
   19DIO     H550049   2.053   1.588   9.461
   19DIO     H650050   2.662   1.946   9.668
   19DIO     H750051   2.674   1.508   9.644
   19DIO     H850052   2.831   1.719   9.807
   19DIO     H950053   2.867   1.878   9.477
   19DIO    H1050054   3.007   1.964   9.537
   19DIO    H1150055   3.065   1.762   9.393
   19DIO    H1250056   3.023   1.536   9.500
   19DIO    H1350057   2.876   1.621   9.454
   19DIO    H1450058   3.156   1.727   9.685
   19DIO    H1550059   3.232   1.658   9.543
   19DIO    H1650060   3.219   1.954   9.617
   19DIO    H1750061   3.358   1.848   9.625
   19DIO    H1850062   3.349   1.819   9.373
   19DIO    H1950063   3.218   1.940   9.369
   19DIO    H2050064   3.378   1.986   9.426
   20DIO     F150065   1.921  -0.496   1.852
   20DIO     C150066   1.999  -0.445   1.950
   20DIO     C250067   2.143  -0.459   1.941
   20DIO     C350068   2.232  -0.407   2.048
   20DIO     C450069   2.166  -0.339   2.161
   20DIO     C550070   2.022  -0.325   2.168
   20DIO     F250071   1.967  -0.259   2.271
   20DIO     C650072   1.938  -0.378   2.063
   20DIO     F350073   1.805  -0.366   2.071
   20DIO     C750074   2.378  -0.422   2.041
   20DIO     C850075   2.455  -0.476   2.155
   20DIO     C950076   2.600  -0.490   2.149
   20DIO    C1050077   2.673  -0.441   2.033
   20DIO    C1150078   2.600  -0.394   1.916
   20DIO    C1250079   2.456  -0.383   1.922
   20DIO     F450080   2.391  -0.334   1.814
   20DIO     O150081   2.805  -0.479   2.023
   20DIO    C1350082   2.899  -0.394   1.966
   20DIO     O250083   2.900  -0.270   1.943
   20DIO    C1450084   3.029  -0.460   1.944
   20DIO    C1550085   3.095  -0.539   2.050
   20DIO     F550086   3.032  -0.561   2.168
   20DIO    C1650087   3.226  -0.600   2.032
   20DIO    C1750088   3.301  -0.578   1.910
   20DIO    C1850089   3.233  -0.515   1.798
   20DIO    C1950090   3.101  -0.456   1.815
   20DIO     F650091   3.039  -0.412   1.704
   20DIO    C2050092   3.442  -0.630   1.894
   20DIO     O350093   3.512  -0.646   2.018
   20DIO    C2150094   3.556  -0.522   2.073
   20DIO    C2250095   3.644  -0.447   1.974
   20DIO    C2350096   3.564  -0.432   1.846
   20DIO     O450097   3.519  -0.558   1.798
   20DIO    C2450098   3.777  -0.521   1.945
   20DIO    C2550099   3.868  -0.546   2.065
   20DIO    C2650100   3.906  -0.420   2.141
   20DIO     H150101   2.186  -0.509   1.855
   20DIO     H250102   2.227  -0.290   2.237
   20DIO     H350103   2.404  -0.511   2.243
   20DIO     H450104   2.655  -0.537   2.229
   20DIO     H550105   2.655  -0.363   1.828
   20DIO     H650106   3.264  -0.664   2.111
   20DIO     H750107   3.276  -0.516   1.698
   20DIO     H850108   3.432  -0.732   1.854
   20DIO     H950109   3.469  -0.462   2.101
   20DIO    H1050110   3.608  -0.544   2.166
   20DIO    H1150111   3.667  -0.348   2.014
   20DIO    H1250112   3.625  -0.386   1.767
   20DIO    H1350113   3.478  -0.366   1.861
   20DIO    H1450114   3.757  -0.617   1.896
   20DIO    H1550115   3.834  -0.461   1.872
   20DIO    H1650116   3.821  -0.617   2.134
   20DIO    H1750117   3.960  -0.595   2.030
   20DIO    H1850118   3.950  -0.346   2.075
   20DIO    H1950119   3.820  -0.376   2.191
   20DIO    H2050120   3.980  -0.444   2.219
   21DIO     F150121   3.043   0.724   6.229
   21DIO     C150122   3.120   0.720   6.339
   21DIO     C250123   3.264   0.712   6.324
   21DIO     C350124   3.353   0.706   6.443
   21DIO     C450125   3.288   0.711   6.575
   21DIO     C550126   3.143   0.719   6.587
   21DIO     F250127   3.088   0.728   6.710
   21DIO     C650128   3.060   0.724   6.470
   21DIO     F350129   2.926   0.731   6.483
   21DIO     C750130   3.499   0.697   6.430
   21DIO     C850131   3.577   0.594   6.503
   21DIO     C950132   3.721   0.585   6.491
   21DIO    C1050133   3.794   0.684   6.413
   21DIO    C1150134   3.721   0.781   6.334
   21DIO    C1250135   3.577   0.789   6.344
   21DIO     F450136   3.512   0.884   6.274
   21DIO     O150137   3.926   0.655   6.387
   21DIO    C1350138   4.021   0.757   6.378
   21DIO     O250139   4.021   0.877   6.418
   21DIO    C1450140   4.150   0.710   6.326
   21DIO    C1550141   4.216   0.589   6.381
   21DIO     F550142   4.153   0.514   6.473
   21DIO    C1650143   4.347   0.545   6.336
   21DIO    C1750144   4.423   0.624   6.239
   21DIO    C1850145   4.354   0.733   6.172
   21DIO    C1950146   4.222   0.776   6.216
   21DIO     F650147   4.160   0.869   6.140
   21DIO    C2050148   4.563   0.585   6.200
   21DIO     O350149   4.633   0.511   6.301
   21DIO    C2150150   4.677   0.593   6.409
   21DIO    C2250151   4.766   0.707   6.359
   21DIO    C2350152   4.685   0.783   6.254
   21DIO     O450153   4.641   0.695   6.151
   21DIO    C2450154   4.898   0.657   6.298
   21DIO    C2550155   4.989   0.576   6.391
   21DIO    C2650156   5.027   0.649   6.518
   21DIO     H150157   3.307   0.710   6.225
   21DIO     H250158   3.348   0.717   6.665
   21DIO     H350159   3.525   0.520   6.563
   21DIO     H450160   3.776   0.505   6.538
   21DIO     H550161   3.776   0.851   6.272
   21DIO     H650162   4.385   0.451   6.374
   21DIO     H750163   4.397   0.781   6.085
   21DIO     H850164   4.554   0.516   6.115
   21DIO     H950165   4.590   0.633   6.463
   21DIO    H1050166   4.729   0.529   6.480
   21DIO    H1150167   4.788   0.774   6.442
   21DIO    H1250168   4.746   0.861   6.208
   21DIO    H1350169   4.599   0.833   6.300
   21DIO    H1450170   4.878   0.596   6.209
   21DIO    H1550171   4.955   0.744   6.263
   21DIO    H1650172   4.942   0.480   6.416
   21DIO    H1750173   5.081   0.551   6.336
   21DIO    H1850174   5.071   0.747   6.496
   21DIO    H1950175   4.941   0.664   6.584
   21DIO    H2050176   5.101   0.591   6.574
   22DIO     F150177   8.689   9.811   6.232
   22DIO     C150178   8.766   9.759   6.329
   22DIO     C250179   8.910   9.758   6.312
   22DIO     C350180   8.999   9.700   6.415
   22DIO     C450181   8.934   9.645   6.536
   22DIO     C550182   8.789   9.647   6.550
   22DIO     F250183   8.734   9.600   6.664
   22DIO     C650184   8.706   9.704   6.447
   22DIO     F350185   8.572   9.704   6.462
   22DIO     C750186   9.146   9.697   6.399
   22DIO     C850187   9.223   9.573   6.419
   22DIO     C950188   9.367   9.570   6.404
   22DIO    C1050189   9.440   9.693   6.379
   22DIO    C1150190   9.368   9.816   6.351
   22DIO    C1250191   9.223   9.818   6.363
   22DIO     F450192   9.159   9.934   6.343
   22DIO     O150193   9.572   9.680   6.342
   22DIO    C1350194   9.667   9.775   6.380
   22DIO     O250195   9.668   9.864   6.469
   22DIO    C1450196   9.796   9.756   6.313
   22DIO    C1550197   9.862   9.623   6.307
   22DIO     F550198   9.800   9.514   6.356
   22DIO    C1650199   9.993   9.604   6.248
   22DIO    C1750200  10.069   9.717   6.196
   22DIO    C1850201  10.000   9.845   6.185
   22DIO    C1950202   9.868   9.864   6.243
   22DIO     F650203   9.806   9.981   6.216
   22DIO    C2050204  10.209   9.700   6.144
   22DIO     O350205  10.279   9.589   6.201
   22DIO    C2150206  10.323   9.614   6.334
   22DIO    C2250207  10.412   9.738   6.340
   22DIO    C2350208  10.331   9.853   6.280
   22DIO     O450209  10.287   9.821   6.149
   22DIO    C2450210  10.545   9.721   6.263
   22DIO    C2550211  10.635   9.607   6.310
   22DIO    C2650212  10.674   9.615   6.457
   22DIO     H150213   8.953   9.801   6.222
   22DIO     H250214   8.994   9.610   6.619
   22DIO     H350215   9.171   9.480   6.440
   22DIO     H450216   9.423   9.477   6.410
   22DIO     H550217   9.422   9.906   6.327
   22DIO     H650218  10.031   9.503   6.239
   22DIO     H750219  10.043   9.927   6.128
   22DIO     H850220  10.200   9.676   6.037
   22DIO     H950221  10.236   9.626   6.400
   22DIO    H1050222  10.376   9.525   6.369
   22DIO    H1150223  10.434   9.761   6.445
   22DIO    H1250224  10.392   9.943   6.274
   22DIO    H1350225  10.245   9.877   6.344
   22DIO    H1450226  10.525   9.706   6.156
   22DIO    H1550227  10.601   9.815   6.271
   22DIO    H1650228  10.588   9.510   6.290
   22DIO    H1750229  10.727   9.609   6.250
   22DIO    H1850230  10.718   9.713   6.481
   22DIO    H1950231  10.587   9.600   6.522
   22DIO    H2050232  10.747   9.538   6.481
   23DIO     F150233   7.329   0.489   9.512
   23DIO     C150234   7.406   0.408   9.587
   23DIO     C250235   7.550   0.413   9.571
   23DIO     C350236   7.639   0.325   9.649
   23DIO     C450237   7.574   0.234   9.746
   23DIO     C550238   7.429   0.231   9.761
   23DIO     F250239   7.374   0.150   9.853
   23DIO     C650240   7.346   0.318   9.682
   23DIO     F350241   7.212   0.313   9.695
   23DIO     C750242   7.785   0.327   9.634
   23DIO     C850243   7.863   0.203   9.612
   23DIO     C950244   8.007   0.205   9.597
   23DIO    C1050245   8.080   0.330   9.613
   23DIO    C1150246   8.007   0.455   9.627
   23DIO    C1250247   7.863   0.453   9.639
   23DIO     F450248   7.798   0.569   9.657
   23DIO     O150249   8.212   0.329   9.574
   23DIO    C1350250   8.307   0.406   9.640
   23DIO     O250251   8.307   0.462   9.753
   23DIO    C1450252   8.436   0.410   9.571
   23DIO    C1550253   8.502   0.287   9.523
   23DIO     F550254   8.439   0.168   9.534
   23DIO    C1650255   8.633   0.287   9.460
   23DIO    C1750256   8.709   0.411   9.448
   23DIO    C1850257   8.640   0.536   9.479
   23DIO    C1950258   8.508   0.535   9.540
   23DIO     F650259   8.446   0.654   9.552
   23DIO    C2050260   8.849   0.412   9.393
   23DIO     O350261   8.919   0.288   9.411
   23DIO    C2150262   8.963   0.269   9.545
   23DIO    C2250263   9.052   0.384   9.591
   23DIO    C2350264   8.971   0.513   9.572
   23DIO     O450265   8.927   0.525   9.437
   23DIO    C2450266   9.184   0.393   9.513
   23DIO    C2550267   9.275   0.270   9.520
   23DIO    C2650268   9.313   0.231   9.662
   23DIO     H150269   7.593   0.483   9.499
   23DIO     H250270   7.634   0.174   9.814
   23DIO     H350271   7.811   0.108   9.602
   23DIO     H450272   8.062   0.115   9.573
   23DIO     H550273   8.062   0.548   9.633
   23DIO     H650274   8.671   0.194   9.419
   23DIO     H750275   8.683   0.632   9.451
   23DIO     H850276   8.840   0.424   9.285
   23DIO     H950277   8.876   0.259   9.611
   23DIO    H1050278   9.015   0.173   9.550
   23DIO    H1150279   9.074   0.373   9.698
   23DIO    H1250280   9.032   0.600   9.595
   23DIO    H1350281   8.885   0.515   9.640
   23DIO    H1450282   9.164   0.414   9.407
   23DIO    H1550283   9.241   0.479   9.550
   23DIO    H1650284   9.228   0.185   9.470
   23DIO    H1750285   9.367   0.291   9.464
   23DIO    H1850286   9.357   0.315   9.716
   23DIO    H1950287   9.227   0.195   9.719
   23DIO    H2050288   9.387   0.150   9.660
   24DIO     F150289   0.878   1.341   2.636
   24DIO     C150290   0.955   1.231   2.641
   24DIO     C250291   1.099   1.245   2.632
   24DIO     C350292   1.188   1.127   2.635
   24DIO     C450293   1.123   0.995   2.650
   24DIO     C550294   0.978   0.983   2.659
   24DIO     F250295   0.923   0.862   2.677
   24DIO     C650296   0.895   1.101   2.655
   24DIO     F350297   0.761   1.089   2.663
   24DIO     C750298   1.335   1.139   2.624
   24DIO     C850299   1.412   1.058   2.528
   24DIO     C950300   1.556   1.069   2.518
   24DIO    C1050301   1.629   1.154   2.610
   24DIO    C1150302   1.556   1.241   2.702
   24DIO    C1250303   1.412   1.231   2.710
   24DIO     F450304   1.347   1.309   2.799
   24DIO     O150305   1.761   1.179   2.580
   24DIO    C1350306   1.856   1.195   2.681
   24DIO     O250307   1.857   1.164   2.803
   24DIO    C1450308   1.985   1.243   2.630
   24DIO    C1550309   2.051   1.179   2.514
   24DIO     F550310   1.988   1.081   2.445
   24DIO    C1650311   2.182   1.220   2.466
   24DIO    C1750312   2.258   1.323   2.537
   24DIO    C1850313   2.189   1.399   2.641
   24DIO    C1950314   2.057   1.358   2.688
   24DIO     F650315   1.995   1.441   2.774
   24DIO    C2050316   2.398   1.359   2.496
   24DIO     O350317   2.468   1.253   2.430
   24DIO    C2150318   2.512   1.151   2.520
   24DIO    C2250319   2.601   1.210   2.629
   24DIO    C2350320   2.520   1.320   2.697
   24DIO     O450321   2.476   1.417   2.602
   24DIO    C2450322   2.733   1.267   2.575
   24DIO    C2550323   2.824   1.168   2.501
   24DIO    C2650324   2.863   1.047   2.584
   24DIO     H150325   1.142   1.344   2.622
   24DIO     H250326   1.183   0.905   2.663
   24DIO     H350327   1.360   0.992   2.459
   24DIO     H450328   1.611   1.016   2.441
   24DIO     H550329   1.611   1.308   2.767
   24DIO     H650330   2.220   1.176   2.375
   24DIO     H750331   2.232   1.489   2.682
   24DIO     H850332   2.389   1.438   2.420
   24DIO     H950333   2.425   1.101   2.564
   24DIO    H1050334   2.565   1.075   2.461
   24DIO    H1150335   2.623   1.132   2.703
   24DIO    H1250336   2.581   1.373   2.771
   24DIO    H1350337   2.434   1.279   2.750
   24DIO    H1450338   2.714   1.351   2.507
   24DIO    H1550339   2.790   1.309   2.659
   24DIO    H1650340   2.777   1.135   2.408
   24DIO    H1750341   2.916   1.221   2.472
   24DIO    H1850342   2.906   1.076   2.680
   24DIO    H1950343   2.776   0.983   2.604
   24DIO    H2050344   2.936   0.986   2.530
   25DIO     F150345   2.028   2.598  -0.866
   25DIO     C150346   2.106   2.697  -0.913
   25DIO     C250347   2.250   2.688  -0.899
   25DIO     C350348   2.339   2.796  -0.947
   25DIO     C450349   2.273   2.912  -1.012
   25DIO     C550350   2.129   2.919  -1.025
   25DIO     F250351   2.073   3.024  -1.088
   25DIO     C650352   2.045   2.812  -0.976
   25DIO     F350353   1.911   2.820  -0.988
   25DIO     C750354   2.485   2.789  -0.933
   25DIO     C850355   2.562   2.901  -0.875
   25DIO     C950356   2.707   2.894  -0.861
   25DIO    C1050357   2.779   2.780  -0.914
   25DIO    C1150358   2.707   2.665  -0.965
   25DIO    C1250359   2.563   2.671  -0.976
   25DIO     F450360   2.498   2.565  -1.029
   25DIO     O150361   2.912   2.769  -0.877
   25DIO    C1350362   3.006   2.715  -0.964
   25DIO     O250363   3.007   2.696  -1.088
   25DIO    C1450364   3.135   2.691  -0.898
   25DIO    C1550365   3.202   2.794  -0.815
   25DIO     F550366   3.139   2.910  -0.790
   25DIO    C1650367   3.332   2.774  -0.756
   25DIO    C1750368   3.408   2.652  -0.782
   25DIO    C1850369   3.339   2.542  -0.849
   25DIO    C1950370   3.208   2.562  -0.907
   25DIO     F650371   3.145   2.452  -0.955
   25DIO    C2050372   3.549   2.635  -0.730
   25DIO     O350373   3.619   2.758  -0.710
   25DIO    C2150374   3.662   2.817  -0.831
   25DIO    C2250375   3.751   2.721  -0.910
   25DIO    C2350376   3.670   2.593  -0.930
   25DIO     O450377   3.626   2.541  -0.805
   25DIO    C2450378   3.884   2.689  -0.838
   25DIO    C2550379   3.975   2.809  -0.808
   25DIO    C2650380   4.013   2.889  -0.931
   25DIO     H150381   2.292   2.600  -0.852
   25DIO     H250382   2.334   2.989  -1.058
   25DIO     H350383   2.511   2.988  -0.837
   25DIO     H450384   2.762   2.972  -0.811
   25DIO     H550385   2.761   2.578  -1.000
   25DIO     H650386   3.370   2.850  -0.689
   25DIO     H750387   3.382   2.443  -0.852
   25DIO     H850388   3.539   2.590  -0.630
   25DIO     H950389   3.576   2.847  -0.891
   25DIO    H1050390   3.715   2.910  -0.807
   25DIO    H1150391   3.774   2.764  -1.008
   25DIO    H1250392   3.731   2.516  -0.979
   25DIO    H1350393   3.584   2.611  -0.996
   25DIO    H1450394   3.864   2.637  -0.743
   25DIO    H1550395   3.940   2.618  -0.900
   25DIO    H1650396   3.927   2.875  -0.734
   25DIO    H1750397   4.066   2.771  -0.761
   25DIO    H1850398   4.057   2.825  -1.008
   25DIO    H1950399   3.926   2.941  -0.974
   25DIO    H2050400   4.087   2.966  -0.904
   26DIO     F150401   0.056   5.114   9.710
   26DIO     C150402   0.133   5.121   9.600
   26DIO     C250403   0.278   5.129   9.615
   26DIO     C350404   0.366   5.140   9.497
   26DIO     C450405   0.301   5.140   9.364
   26DIO     C550406   0.157   5.132   9.352
   26DIO     F250407   0.101   5.129   9.229
   26DIO     C650408   0.073   5.123   9.469
   26DIO     F350409  -0.061   5.117   9.456
   26DIO     C750410   0.513   5.149   9.511
   26DIO     C850411   0.590   5.254   9.441
   26DIO     C950412   0.735   5.263   9.454
   26DIO    C1050413   0.807   5.161   9.527
   26DIO    C1150414   0.735   5.060   9.603
   26DIO    C1250415   0.591   5.053   9.592
   26DIO     F450416   0.526   4.956   9.659
   26DIO     O150417   0.939   5.188   9.555
   26DIO    C1350418   1.034   5.086   9.560
   26DIO     O250419   1.035   4.968   9.515
   26DIO    C1450420   1.163   5.131   9.613
   26DIO    C1550421   1.229   5.254   9.564
   26DIO     F550422   1.167   5.333   9.474
   26DIO    C1650423   1.360   5.296   9.610
   26DIO    C1750424   1.436   5.214   9.704
   26DIO    C1850425   1.367   5.102   9.767
   26DIO    C1950426   1.235   5.060   9.721
   26DIO     F650427   1.173   4.965   9.794
   26DIO    C2050428   1.577   5.251   9.744
   26DIO     O350429   1.646   5.329   9.647
   26DIO    C2150430   1.690   5.251   9.535
   26DIO    C2250431   1.779   5.136   9.581
   26DIO    C2350432   1.698   5.056   9.683
   26DIO     O450433   1.654   5.139   9.789
   26DIO    C2450434   1.912   5.183   9.644
   26DIO    C2550435   2.002   5.268   9.554
   26DIO    C2650436   2.041   5.200   9.424
   26DIO     H150437   0.320   5.127   9.715
   26DIO     H250438   0.361   5.138   9.274
   26DIO     H350439   0.538   5.330   9.384
   26DIO     H450440   0.790   5.345   9.410
   26DIO     H550441   0.789   4.988   9.662
   26DIO     H650442   1.398   5.392   9.576
   26DIO     H750443   1.410   5.051   9.852
   26DIO     H850444   1.567   5.316   9.832
   26DIO     H950445   1.603   5.214   9.480
   26DIO    H1050446   1.743   5.318   9.467
   26DIO    H1150447   1.801   5.072   9.495
   26DIO    H1250448   1.759   4.976   9.726
   26DIO    H1350449   1.612   5.007   9.635
   26DIO    H1450450   1.892   5.241   9.735
   26DIO    H1550451   1.968   5.094   9.676
   26DIO    H1650452   1.955   5.364   9.532
   26DIO    H1750453   2.094   5.291   9.610
   26DIO    H1850454   2.085   5.101   9.442
   26DIO    H1950455   1.954   5.187   9.358
   26DIO    H2050456   2.114   5.260   9.370
   27DIO     F150457   2.561   0.470  -0.086
   27DIO     C150458   2.639   0.408  -0.177
   27DIO     C250459   2.783   0.423  -0.170
   27DIO     C350460   2.871   0.358  -0.269
   27DIO     C450461   2.806   0.276  -0.373
   27DIO     C550462   2.662   0.262  -0.378
   27DIO     F250463   2.606   0.182  -0.471
   27DIO     C650464   2.578   0.327  -0.280
   27DIO     F350465   2.444   0.314  -0.286
   27DIO     C750466   3.018   0.373  -0.264
   27DIO     C850467   3.095   0.413  -0.384
   27DIO     C950468   3.240   0.427  -0.379
   27DIO    C1050469   3.312   0.393  -0.258
   27DIO    C1150470   3.240   0.362  -0.136
   27DIO    C1250471   3.096   0.350  -0.140
   27DIO     F450472   3.031   0.315  -0.027
   27DIO     O150473   3.444   0.432  -0.253
   27DIO    C1350474   3.539   0.355  -0.186
   27DIO     O250475   3.540   0.235  -0.148
   27DIO    C1450476   3.668   0.423  -0.172
   27DIO    C1550477   3.734   0.489  -0.288
   27DIO     F550478   3.672   0.495  -0.407
   27DIO    C1650479   3.865   0.551  -0.278
   27DIO    C1750480   3.941   0.545  -0.153
   27DIO    C1850481   3.872   0.496  -0.034
   27DIO    C1950482   3.741   0.435  -0.044
   27DIO     F650483   3.678   0.406   0.072
   27DIO    C2050484   4.082   0.599  -0.144
   27DIO     O350485   4.151   0.599  -0.269
   27DIO    C2150486   4.195   0.469  -0.308
   27DIO    C2250487   4.284   0.407  -0.201
   27DIO    C2350488   4.203   0.408  -0.071
   27DIO     O450489   4.159   0.539  -0.040
   27DIO    C2450490   4.417   0.483  -0.181
   27DIO    C2550491   4.507   0.494  -0.304
   27DIO    C2650492   4.546   0.359  -0.363
   27DIO     H150493   2.825   0.483  -0.090
   27DIO     H250494   2.867   0.218  -0.442
   27DIO     H350495   3.043   0.437  -0.476
   27DIO     H450496   3.295   0.464  -0.464
   27DIO     H550497   3.294   0.342  -0.045
   27DIO     H650498   3.903   0.605  -0.364
   27DIO     H750499   3.915   0.509   0.064
   27DIO     H850500   4.072   0.704  -0.117
   27DIO     H950501   4.108   0.405  -0.328
   27DIO    H1050502   4.248   0.479  -0.403
   27DIO    H1150503   4.306   0.303  -0.228
   27DIO    H1250504   4.264   0.372   0.012
   27DIO    H1350505   4.117   0.340  -0.078
   27DIO    H1450506   4.397   0.585  -0.145
   27DIO    H1550507   4.473   0.434  -0.101
   27DIO    H1650508   4.460   0.556  -0.381
   27DIO    H1750509   4.599   0.546  -0.274
   27DIO    H1850510   4.590   0.293  -0.288
   27DIO    H1950511   4.459   0.309  -0.407
   27DIO    H2050512   4.619   0.373  -0.443
   28DIO     F150513   6.921   3.634   0.191
   28DIO     C150514   6.999   3.560   0.110
   28DIO     C250515   7.143   3.576   0.115
   28DIO     C350516   7.231   3.498   0.027
   28DIO     C450517   7.166   3.401  -0.065
   28DIO     C550518   7.022   3.387  -0.068
   28DIO     F250519   6.966   3.295  -0.149
   28DIO     C650520   6.938   3.465   0.020
   28DIO     F350521   6.804   3.452   0.015
   28DIO     C750522   7.378   3.513   0.029
   28DIO     C850523   7.455   3.535  -0.095
   28DIO     C950524   7.600   3.550  -0.093
   28DIO    C1050525   7.672   3.534   0.032
   28DIO    C1150526   7.600   3.520   0.157
   28DIO    C1250527   7.456   3.507   0.155
   28DIO     F450528   7.391   3.489   0.271
   28DIO     O150529   7.804   3.573   0.031
   28DIO    C1350530   7.899   3.506   0.109
   28DIO     O250531   7.900   3.393   0.164
   28DIO    C1450532   8.028   3.576   0.112
   28DIO    C1550533   8.094   3.624  -0.011
   28DIO     F550534   8.032   3.614  -0.130
   28DIO    C1650535   8.225   3.687  -0.010
   28DIO    C1750536   8.301   3.699   0.114
   28DIO    C1850537   8.232   3.667   0.239
   28DIO    C1950538   8.101   3.606   0.238
   28DIO     F650539   8.038   3.593   0.357
   28DIO    C2050540   8.442   3.753   0.115
   28DIO     O350541   8.511   3.736  -0.009
   28DIO    C2150542   8.555   3.602  -0.028
   28DIO    C2250543   8.644   3.556   0.087
   28DIO    C2350544   8.563   3.575   0.215
   28DIO     O450545   8.519   3.709   0.228
   28DIO    C2450546   8.777   3.634   0.096
   28DIO    C2550547   8.867   3.627  -0.027
   28DIO    C2650548   8.906   3.485  -0.067
   28DIO     H150549   7.185   3.647   0.185
   28DIO     H250550   7.227   3.334  -0.125
   28DIO     H350551   7.403   3.546  -0.190
   28DIO     H450552   7.655   3.575  -0.182
   28DIO     H550553   7.654   3.513   0.250
   28DIO     H650554   8.263   3.728  -0.103
   28DIO     H750555   8.275   3.695   0.335
   28DIO     H850556   8.432   3.862   0.128
   28DIO     H950557   8.468   3.536  -0.039
   28DIO    H1050558   8.608   3.598  -0.124
   28DIO    H1150559   8.666   3.449   0.075
   28DIO    H1250560   8.624   3.551   0.303
   28DIO    H1350561   8.477   3.507   0.217
   28DIO    H1450562   8.757   3.740   0.117
   28DIO    H1550563   8.833   3.596   0.182
   28DIO    H1650564   8.820   3.677  -0.113
   28DIO    H1750565   8.959   3.683  -0.006
   28DIO    H1850566   8.950   3.431   0.017
   28DIO    H1950567   8.819   3.429  -0.104
   28DIO    H2050568   8.979   3.488  -0.148
   29DIO     F150569   1.833   9.480   6.822
   29DIO     C150570   1.910   9.575   6.767
   29DIO     C250571   2.055   9.567   6.782
   29DIO     C350572   2.143   9.671   6.725
   29DIO     C450573   2.078   9.781   6.651
   29DIO     C550574   1.934   9.787   6.638
   29DIO     F250575   1.878   9.887   6.566
   29DIO     C650576   1.850   9.685   6.695
   29DIO     F350577   1.716   9.692   6.683
   29DIO     C750578   2.290   9.665   6.740
   29DIO     C850579   2.367   9.781   6.789
   29DIO     C950580   2.512   9.775   6.803
   29DIO    C1050581   2.584   9.657   6.759
   29DIO    C1150582   2.512   9.539   6.718
   29DIO    C1250583   2.368   9.544   6.706
   29DIO     F450584   2.303   9.434   6.662
   29DIO     O150585   2.716   9.650   6.798
   29DIO    C1350586   2.811   9.589   6.715
   29DIO     O250587   2.812   9.560   6.593
   29DIO    C1450588   2.940   9.570   6.782
   29DIO    C1550589   3.006   9.679   6.857
   29DIO     F550590   2.944   9.798   6.873
   29DIO    C1650591   3.137   9.664   6.918
   29DIO    C1750592   3.213   9.541   6.901
   29DIO    C1850593   3.144   9.426   6.843
   29DIO    C1950594   3.012   9.441   6.784
   29DIO     F650595   2.950   9.327   6.745
   29DIO    C2050596   3.354   9.527   6.955
   29DIO     O350597   3.423   9.652   6.965
   29DIO    C2150598   3.467   9.701   6.839
   29DIO    C2250599   3.556   9.599   6.768
   29DIO    C2350600   3.475   9.470   6.758
   29DIO     O450601   3.431   9.428   6.887
   29DIO    C2450602   3.689   9.573   6.843
   29DIO    C2550603   3.779   9.695   6.863
   29DIO    C2650604   3.818   9.765   6.734
   29DIO     H150605   2.097   9.483   6.835
   29DIO     H250606   2.138   9.855   6.599
   29DIO     H350607   2.315   9.871   6.820
   29DIO     H450608   2.567   9.857   6.847
   29DIO     H550609   2.566   9.449   6.691
   29DIO     H650610   3.175   9.746   6.978
   29DIO     H750611   3.187   9.327   6.849
   29DIO     H850612   3.344   9.491   7.058
   29DIO     H950613   3.380   9.726   6.777
   29DIO    H1050614   3.520   9.795   6.856
   29DIO    H1150615   3.578   9.635   6.667
   29DIO    H1250616   3.536   9.390   6.716
   29DIO    H1350617   3.389   9.483   6.692
   29DIO    H1450618   3.669   9.529   6.941
   29DIO    H1550619   3.745   9.497   6.787
   29DIO    H1650620   3.732   9.767   6.931
   29DIO    H1750621   3.871   9.661   6.913
   29DIO    H1850622   3.862   9.695   6.662
   29DIO    H1950623   3.731   9.813   6.687
   29DIO    H2050624   3.891   9.843   6.754
   30DIO     F150625   2.376   8.028   5.258
   30DIO     C150626   2.454   8.127   5.210
   30DIO     C250627   2.598   8.117   5.224
   30DIO     C350628   2.687   8.225   5.175
   30DIO     C450629   2.621   8.340   5.109
   30DIO     C550630   2.477   8.347   5.096
   30DIO     F250631   2.421   8.452   5.031
   30DIO     C650632   2.393   8.241   5.146
   30DIO     F350633   2.259   8.249   5.134
   30DIO     C750634   2.833   8.218   5.189
   30DIO     C850635   2.910   8.331   5.246
   30DIO     C950636   3.055   8.324   5.260
   30DIO    C1050637   3.127   8.209   5.208
   30DIO    C1150638   3.055   8.094   5.158
   30DIO    C1250639   2.911   8.100   5.147
   30DIO     F450640   2.846   7.993   5.095
   30DIO     O150641   3.260   8.199   5.245
   30DIO    C1350642   3.354   8.144   5.159
   30DIO     O250643   3.355   8.124   5.035
   30DIO    C1450644   3.483   8.120   5.225
   30DIO    C1550645   3.550   8.224   5.306
   30DIO     F550646   3.487   8.341   5.331
   30DIO    C1650647   3.680   8.205   5.366
   30DIO    C1750648   3.756   8.083   5.341
   30DIO    C1850649   3.687   7.973   5.275
   30DIO    C1950650   3.556   7.991   5.217
   30DIO     F650651   3.493   7.881   5.170
   30DIO    C2050652   3.897   8.066   5.394
   30DIO     O350653   3.967   8.190   5.413
   30DIO    C2150654   4.010   8.248   5.290
   30DIO    C2250655   4.099   8.151   5.213
   30DIO    C2350656   4.018   8.022   5.194
   30DIO     O450657   3.974   7.971   5.319
   30DIO    C2450658   4.232   8.119   5.285
   30DIO    C2550659   4.323   8.239   5.314
   30DIO    C2650660   4.361   8.319   5.190
   30DIO     H150661   2.640   8.030   5.271
   30DIO     H250662   2.682   8.417   5.062
   30DIO     H350663   2.859   8.418   5.283
   30DIO     H450664   3.110   8.403   5.309
   30DIO     H550665   3.109   8.007   5.125
   30DIO     H650666   3.718   8.282   5.433
   30DIO     H750667   3.730   7.873   5.274
   30DIO     H850668   3.887   8.023   5.494
   30DIO     H950669   3.924   8.277   5.230
   30DIO    H1050670   4.063   8.340   5.314
   30DIO    H1150671   4.122   8.193   5.114
   30DIO    H1250672   4.079   7.945   5.146
   30DIO    H1350673   3.932   8.040   5.128
   30DIO    H1450674   4.212   8.069   5.380
   30DIO    H1550675   4.288   8.048   5.224
   30DIO    H1650676   4.275   8.306   5.387
   30DIO    H1750677   4.414   8.203   5.361
   30DIO    H1850678   4.405   8.254   5.113
   30DIO    H1950679   4.274   8.370   5.146
   30DIO    H2050680   4.435   8.395   5.216
   31DIO     F150681   2.298  10.481  10.153
   31DIO     C150682   2.376  10.444  10.256
   31DIO     C250683   2.520  10.441  10.240
   31DIO     C350684   2.608  10.400  10.351
   31DIO     C450685   2.543  10.364  10.479
   31DIO     C550686   2.399  10.369  10.493
   31DIO     F250687   2.343  10.340  10.612
   31DIO     C650688   2.315  10.409  10.383
   31DIO     F350689   2.181  10.411  10.397
   31DIO     C750690   2.755  10.395  10.336
   31DIO     C850691   2.832  10.274  10.375
   31DIO     C950692   2.977  10.270  10.360
   31DIO    C1050693   3.049  10.387  10.316
   31DIO    C1150694   2.977  10.504  10.270
   31DIO    C1250695   2.833  10.508  10.282
   31DIO     F450696   2.768  10.620  10.243
   31DIO     O150697   3.181  10.368  10.282
   31DIO    C1350698   3.276  10.468  10.305
   31DIO     O250699   3.277  10.570  10.379
   31DIO    C1450700   3.405  10.438  10.241
   31DIO    C1550701   3.471  10.307  10.257
   31DIO     F550702   3.409  10.207  10.322
   31DIO    C1650703   3.602  10.278  10.201
   31DIO    C1750704   3.678  10.382  10.132
   31DIO    C1850705   3.609  10.507  10.101
   31DIO    C1950706   3.478  10.535  10.156
   31DIO     F650707   3.415  10.646  10.111
   31DIO    C2050708   3.819  10.358  10.083
   31DIO     O350709   3.888  10.257  10.157
   31DIO    C2150710   3.932  10.302  10.285
   31DIO    C2250711   4.021  10.425  10.271
   31DIO    C2350712   3.940  10.530  10.194
   31DIO     O450713   3.896  10.477  10.069
   31DIO    C2450714   4.154  10.396  10.198
   31DIO    C2550715   4.244  10.291  10.262
   31DIO    C2650716   4.283  10.323  10.406
   31DIO     H150717   2.562  10.469  10.144
   31DIO     H250718   2.604  10.343  10.566
   31DIO     H350719   2.780  10.186  10.410
   31DIO     H450720   3.032  10.179  10.381
   31DIO     H550721   3.031  10.590  10.232
   31DIO     H650722   3.640  10.177  10.208
   31DIO     H750723   3.652  10.579  10.032
   31DIO     H850724   3.809  10.317   9.982
   31DIO     H950725   3.845  10.324  10.348
   31DIO    H1050726   3.985  10.220  10.333
   31DIO    H1150727   4.043  10.465  10.371
   31DIO    H1250728   4.001  10.618  10.173
   31DIO    H1350729   3.854  10.564  10.253
   31DIO    H1450730   4.134  10.365  10.094
   31DIO    H1550731   4.210  10.490  10.191
   31DIO    H1650732   4.197  10.192  10.258
   31DIO    H1750733   4.336  10.284  10.202
   31DIO    H1850734   4.327  10.423  10.414
   31DIO    H1950735   4.196  10.317  10.473
   31DIO    H2050736   4.356  10.250  10.442
   32DIO     F150737   8.985   7.197  -0.229
   32DIO     C150738   9.063   7.149  -0.130
   32DIO     C250739   9.207   7.148  -0.147
   32DIO     C350740   9.296   7.095  -0.041
   32DIO     C450741   9.230   7.046   0.082
   32DIO     C550742   9.086   7.048   0.097
   32DIO     F250743   9.030   7.006   0.212
   32DIO     C650744   9.002   7.100  -0.009
   32DIO     F350745   8.868   7.101   0.006
   32DIO     C750746   9.442   7.091  -0.057
   32DIO     C850747   9.519   6.968  -0.031
   32DIO     C950748   9.664   6.964  -0.046
   32DIO    C1050749   9.736   7.086  -0.077
   32DIO    C1150750   9.664   7.207  -0.110
   32DIO    C1250751   9.520   7.210  -0.098
   32DIO     F450752   9.455   7.325  -0.124
   32DIO     O150753   9.869   7.071  -0.113
   32DIO    C1350754   9.963   7.167  -0.080
   32DIO     O250755   9.964   7.261   0.005
   32DIO    C1450756  10.092   7.145  -0.146
   32DIO    C1550757  10.158   7.013  -0.145
   32DIO     F550758  10.096   6.906  -0.091
   32DIO    C1650759  10.289   6.991  -0.204
   32DIO    C1750760  10.365   7.102  -0.260
   32DIO    C1850761  10.296   7.229  -0.278
   32DIO    C1950762  10.165   7.251  -0.220
   32DIO     F650763  10.102   7.366  -0.253
   32DIO    C2050764  10.506   7.082  -0.312
   32DIO     O350765  10.575   6.974  -0.249
   32DIO    C2150766  10.619   7.005  -0.118
   32DIO    C2250767  10.708   7.129  -0.117
   32DIO    C2350768  10.627   7.241  -0.183
   32DIO     O450769  10.583   7.203  -0.312
   32DIO    C2450770  10.841   7.108  -0.194
   32DIO    C2550771  10.931   6.996  -0.141
   32DIO    C2650772  10.970   7.012   0.005
   32DIO     H150773   9.249   7.187  -0.239
   32DIO     H250774   9.291   7.015   0.167
   32DIO     H350775   9.468   6.876  -0.006
   32DIO     H450776   9.719   6.872  -0.036
   32DIO     H550777   9.718   7.296  -0.139
   32DIO     H650778  10.327   6.889  -0.208
   32DIO     H750779  10.339   7.308  -0.338
   32DIO     H850780  10.496   7.053  -0.417
   32DIO     H950781  10.532   7.020  -0.052
   32DIO    H1050782  10.672   6.918  -0.078
   32DIO    H1150783  10.731   7.157  -0.014
   32DIO    H1250784  10.688   7.331  -0.194
   32DIO    H1350785  10.541   7.268  -0.120
   32DIO    H1450786  10.821   7.088  -0.300
   32DIO    H1550787  10.897   7.202  -0.190
   32DIO    H1650788  10.884   6.899  -0.156
   32DIO    H1750789  11.023   6.996  -0.201
   32DIO    H1850790  11.014   7.110   0.024
   32DIO    H1950791  10.883   6.999   0.071
   32DIO    H2050792  11.044   6.936   0.033
   33DIO     F150793   5.830   2.897  10.181
   33DIO     C150794   5.908   3.001  10.219
   33DIO     C250795   6.052   2.984  10.222
   33DIO     C350796   6.141   3.094  10.264
   33DIO     C450797   6.075   3.222  10.301
   33DIO     C550798   5.931   3.236  10.297
   33DIO     F250799   5.875   3.355  10.327
   33DIO     C650800   5.847   3.126  10.255
   33DIO     F350801   5.713   3.140  10.253
   33DIO     C750802   6.287   3.079  10.269
   33DIO     C850803   6.364   3.117  10.390
   33DIO     C950804   6.509   3.103  10.394
   33DIO    C1050805   6.581   3.060  10.276
   33DIO    C1150806   6.509   3.015  10.159
   33DIO    C1250807   6.365   3.027  10.155
   33DIO     F450808   6.300   2.989  10.043
   33DIO     O150809   6.714   3.025  10.295
   33DIO    C1350810   6.808   3.049  10.196
   33DIO     O250811   6.809   3.124  10.094
   33DIO    C1450812   6.937   2.985  10.224
   33DIO    C1550813   7.003   2.999  10.356
   33DIO     F550814   6.941   3.064  10.457
   33DIO    C1650815   7.134   2.943  10.384
   33DIO    C1750816   7.210   2.876  10.279
   33DIO    C1850817   7.141   2.846  10.154
   33DIO    C1950818   7.010   2.901  10.127
   33DIO     F650819   6.947   2.857  10.015
   33DIO    C2050820   7.351   2.827  10.304
   33DIO     O350821   7.420   2.899  10.405
   33DIO    C2150822   7.464   3.027  10.361
   33DIO    C2250823   7.553   3.015  10.238
   33DIO    C2350824   7.472   2.939  10.133
   33DIO     O450825   7.428   2.814  10.184
   33DIO    C2450826   7.686   2.941  10.266
   33DIO    C2550827   7.776   3.005  10.372
   33DIO    C2650828   7.815   3.149  10.342
   33DIO     H150829   6.094   2.889  10.192
   33DIO     H250830   6.136   3.310  10.323
   33DIO     H350831   6.313   3.152  10.478
   33DIO     H450832   6.564   3.122  10.485
   33DIO     H550833   6.563   2.977  10.073
   33DIO     H650834   7.172   2.950  10.485
   33DIO     H750835   7.184   2.777  10.082
   33DIO     H850836   7.341   2.725  10.343
   33DIO     H950837   7.377   3.091  10.340
   33DIO    H1050838   7.517   3.075  10.444
   33DIO    H1150839   7.576   3.115  10.199
   33DIO    H1250840   7.533   2.919  10.044
   33DIO    H1350841   7.386   2.998  10.099
   33DIO    H1450842   7.666   2.838  10.296
   33DIO    H1550843   7.742   2.935  10.172
   33DIO    H1650844   7.729   2.999  10.471
   33DIO    H1750845   7.868   2.945  10.379
   33DIO    H1850846   7.859   3.158  10.242
   33DIO    H1950847   7.728   3.216  10.348
   33DIO    H2050848   7.889   3.184  10.415
   34DIO     F150849   3.695   7.262   2.727
   34DIO     C150850   3.773   7.292   2.621
   34DIO     C250851   3.917   7.296   2.638
   34DIO     C350852   4.006   7.330   2.524
   34DIO     C450853   3.940   7.357   2.394
   34DIO     C550854   3.796   7.352   2.381
   34DIO     F250855   3.740   7.373   2.260
   34DIO     C650856   3.712   7.319   2.493
   34DIO     F350857   3.578   7.316   2.479
   34DIO     C750858   4.152   7.337   2.539
   34DIO     C850859   4.229   7.454   2.493
   34DIO     C950860   4.374   7.460   2.507
   34DIO    C1050861   4.446   7.345   2.558
   34DIO    C1150862   4.374   7.231   2.612
   34DIO    C1250863   4.230   7.227   2.600
   34DIO     F450864   4.165   7.118   2.646
   34DIO     O150865   4.579   7.366   2.591
   34DIO    C1350866   4.673   7.265   2.575
   34DIO     O250867   4.674   7.159   2.508
   34DIO    C1450868   4.802   7.299   2.636
   34DIO    C1550869   4.869   7.429   2.612
   34DIO     F550870   4.806   7.525   2.541
   34DIO    C1650871   4.999   7.461   2.666
   34DIO    C1750872   5.075   7.362   2.741
   34DIO    C1850873   5.006   7.239   2.781
   34DIO    C1950874   4.875   7.208   2.728
   34DIO     F650875   4.812   7.100   2.780
   34DIO    C2050876   5.216   7.390   2.789
   34DIO     O350877   5.286   7.486   2.708
   34DIO    C2150878   5.329   7.432   2.584
   34DIO    C2250879   5.418   7.310   2.605
   34DIO    C2350880   5.337   7.211   2.689
   34DIO     O450881   5.293   7.271   2.810
   34DIO    C2450882   5.551   7.343   2.677
   34DIO    C2550883   5.642   7.444   2.606
   34DIO    C2650884   5.680   7.404   2.464
   34DIO     H150885   3.959   7.274   2.735
   34DIO     H250886   4.001   7.373   2.306
   34DIO     H350887   4.178   7.540   2.452
   34DIO     H450888   4.429   7.549   2.480
   34DIO     H550889   4.428   7.149   2.655
   34DIO     H650890   5.037   7.562   2.653
   34DIO     H750891   5.049   7.172   2.854
   34DIO     H850892   5.206   7.436   2.887
   34DIO     H950893   5.243   7.406   2.522
   34DIO    H1050894   5.382   7.511   2.530
   34DIO    H1150895   5.441   7.264   2.509
   34DIO    H1250896   5.398   7.124   2.715
   34DIO    H1350897   5.251   7.173   2.633
   34DIO    H1450898   5.531   7.381   2.778
   34DIO    H1550899   5.607   7.250   2.690
   34DIO    H1650900   5.594   7.543   2.604
   34DIO    H1750901   5.733   7.456   2.665
   34DIO    H1850902   5.724   7.304   2.463
   34DIO    H1950903   5.593   7.405   2.397
   34DIO    H2050904   5.754   7.474   2.424
   35DIO     F150905   3.347  10.372   5.752
   35DIO     C150906   3.425  10.282   5.688
   35DIO     C250907   3.569  10.298   5.690
   35DIO     C350908   3.658  10.203   5.619
   35DIO     C450909   3.592  10.089   5.551
   35DIO     C550910   3.448  10.075   5.551
   35DIO     F250911   3.392   9.968   5.490
   35DIO     C650912   3.364  10.170   5.620
   35DIO     F350913   3.230  10.156   5.618
   35DIO     C750914   3.804  10.219   5.619
   35DIO     C850915   3.881  10.214   5.492
   35DIO     C950916   4.026  10.229   5.492
   35DIO    C1050917   4.098  10.240   5.617
   35DIO    C1150918   4.026  10.252   5.742
   35DIO    C1250919   3.882  10.240   5.743
   35DIO     F450920   3.817  10.246   5.861
   35DIO     O150921   4.231  10.278   5.608
   35DIO    C1350922   4.325  10.229   5.698
   35DIO     O250923   4.326  10.130   5.775
   35DIO    C1450924   4.454  10.298   5.687
   35DIO    C1550925   4.521  10.319   5.556
   35DIO     F550926   4.458  10.283   5.442
   35DIO    C1650927   4.651  10.380   5.544
   35DIO    C1750928   4.727  10.418   5.663
   35DIO    C1850929   4.658  10.414   5.791
   35DIO    C1950930   4.527  10.354   5.803
   35DIO     F650931   4.464  10.366   5.922
   35DIO    C2050932   4.868  10.472   5.652
   35DIO     O350933   4.938  10.428   5.535
   35DIO    C2150934   4.981  10.293   5.544
   35DIO    C2250935   5.070  10.273   5.666
   35DIO    C2350936   4.989  10.318   5.787
   35DIO     O450937   4.945  10.453   5.771
   35DIO    C2450938   5.203  10.351   5.658
   35DIO    C2550939   5.294  10.318   5.539
   35DIO    C2650940   5.332  10.171   5.530
   35DIO     H150941   3.611  10.383   5.743
   35DIO     H250942   3.653  10.011   5.506
   35DIO     H350943   3.830  10.204   5.398
   35DIO     H450944   4.081  10.234   5.399
   35DIO     H550945   4.080  10.266   5.835
   35DIO     H650946   4.689  10.401   5.444
   35DIO     H750947   4.701  10.461   5.879
   35DIO     H850948   4.858  10.581   5.641
   35DIO     H950949   4.895  10.227   5.547
   35DIO    H1050950   5.034  10.269   5.451
   35DIO    H1150951   5.093  10.166   5.677
   35DIO    H1250952   5.050  10.314   5.878
   35DIO    H1350953   4.903  10.252   5.804
   35DIO    H1450954   5.183  10.459   5.656
   35DIO    H1550955   5.259  10.332   5.750
   35DIO    H1650956   5.246  10.349   5.445
   35DIO    H1750957   5.385  10.377   5.548
   35DIO    H1850958   5.376  10.136   5.624
   35DIO    H1950959   5.245  10.108   5.507
   35DIO    H2050960   5.406  10.156   5.451
   36DIO     F150961   4.167   1.841   2.877
   36DIO     C150962   4.244   1.839   2.767
   36DIO     C250963   4.388   1.847   2.782
   36DIO     C350964   4.477   1.848   2.663
   36DIO     C450965   4.412   1.837   2.531
   36DIO     C550966   4.267   1.828   2.519
   36DIO     F250967   4.212   1.813   2.397
   36DIO     C650968   4.184   1.828   2.637
   36DIO     F350969   4.050   1.821   2.624
   36DIO     C750970   4.624   1.858   2.676
   36DIO     C850971   4.701   1.957   2.598
   36DIO     C950972   4.845   1.967   2.609
   36DIO    C1050973   4.918   1.872   2.691
   36DIO    C1150974   4.845   1.778   2.775
   36DIO    C1250975   4.701   1.770   2.765
   36DIO     F450976   4.636   1.679   2.840
   36DIO     O150977   5.050   1.901   2.717
   36DIO    C1350978   5.145   1.800   2.730
   36DIO     O250979   5.146   1.679   2.696
   36DIO    C1450980   5.274   1.849   2.779
   36DIO    C1550981   5.340   1.967   2.720
   36DIO     F550982   5.277   2.039   2.624
   36DIO    C1650983   5.471   2.014   2.762
   36DIO    C1750984   5.547   1.940   2.862
   36DIO    C1850985   5.478   1.834   2.935
   36DIO    C1950986   5.346   1.788   2.893
   36DIO     F650987   5.284   1.700   2.974
   36DIO    C2050988   5.687   1.980   2.900
   36DIO     O350989   5.757   2.049   2.795
   36DIO    C2150990   5.801   1.962   2.691
   36DIO    C2250991   5.890   1.851   2.747
   36DIO    C2350992   5.809   1.780   2.855
   36DIO     O450993   5.765   1.872   2.954
   36DIO    C2450994   6.022   1.904   2.806
   36DIO    C2550995   6.113   1.980   2.709
   36DIO    C2650996   6.152   1.901   2.585
   36DIO     H150997   4.431   1.854   2.881
   36DIO     H250998   4.472   1.826   2.441
   36DIO     H350999   4.649   2.028   2.534
   36DIO     H451000   4.900   2.045   2.559
   36DIO     H551001   4.900   1.711   2.841
   36DIO     H651002   5.509   2.106   2.720
   36DIO     H751003   5.521   1.790   3.024
   36DIO     H851004   5.678   2.053   2.981
   36DIO     H951005   5.714   1.920   2.640
   36DIO    H1051006   5.854   2.023   2.617
   36DIO    H1151007   5.912   1.780   2.667
   36DIO    H1251008   5.870   1.704   2.905
   36DIO    H1351009   5.723   1.728   2.812
   36DIO    H1451010   6.003   1.969   2.892
   36DIO    H1551011   6.079   1.818   2.845
   36DIO    H1651012   6.066   2.075   2.679
   36DIO    H1751013   6.205   2.008   2.762
   36DIO    H1851014   6.195   1.805   2.612
   36DIO    H1951015   6.065   1.883   2.520
   36DIO    H2051016   6.225   1.957   2.526
   37DIO     F151017  -0.792   8.724   4.970
   37DIO     C151018  -0.715   8.776   5.067
   37DIO     C251019  -0.570   8.761   5.058
   37DIO     C351020  -0.482   8.815   5.164
   37DIO     C451021  -0.547   8.885   5.277
   37DIO     C551022  -0.691   8.898   5.283
   37DIO     F251023  -0.747   8.966   5.385
   37DIO     C651024  -0.775   8.844   5.179
   37DIO     F351025  -0.909   8.856   5.186
   37DIO     C751026  -0.335   8.800   5.157
   37DIO     C851027  -0.258   8.747   5.272
   37DIO     C951028  -0.113   8.733   5.266
   37DIO    C1051029  -0.041   8.781   5.150
   37DIO    C1151030  -0.113   8.826   5.032
   37DIO    C1251031  -0.257   8.838   5.037
   37DIO     F451032  -0.322   8.885   4.929
   37DIO     O151033   0.091   8.743   5.140
   37DIO    C1351034   0.186   8.827   5.082
   37DIO     O251035   0.187   8.950   5.058
   37DIO    C1451036   0.315   8.761   5.061
   37DIO    C1551037   0.381   8.683   5.168
   37DIO     F551038   0.319   8.663   5.286
   37DIO    C1651039   0.512   8.622   5.151
   37DIO    C1751040   0.588   8.642   5.028
   37DIO    C1851041   0.519   8.704   4.915
   37DIO    C1951042   0.387   8.763   4.932
   37DIO     F651043   0.325   8.806   4.820
   37DIO    C2051044   0.729   8.590   5.013
   37DIO     O351045   0.798   8.575   5.138
   37DIO    C2151046   0.842   8.700   5.191
   37DIO    C2251047   0.931   8.774   5.091
   37DIO    C2351048   0.850   8.788   4.962
   37DIO     O451049   0.806   8.661   4.916
   37DIO    C2451050   1.064   8.700   5.062
   37DIO    C2551051   1.154   8.676   5.183
   37DIO    C2651052   1.193   8.803   5.258
   37DIO     H151053  -0.528   8.710   4.972
   37DIO     H251054  -0.487   8.935   5.352
   37DIO     H351055  -0.310   8.713   5.361
   37DIO     H451056  -0.058   8.687   5.346
   37DIO     H551057  -0.059   8.856   4.944
   37DIO     H651058   0.550   8.559   5.230
   37DIO     H751059   0.562   8.702   4.816
   37DIO     H851060   0.719   8.488   4.974
   37DIO     H951061   0.755   8.761   5.218
   37DIO    H1051062   0.895   8.680   5.284
   37DIO    H1151063   0.953   8.874   5.130
   37DIO    H1251064   0.911   8.833   4.883
   37DIO    H1351065   0.764   8.854   4.977
   37DIO    H1451066   1.044   8.603   5.015
   37DIO    H1551067   1.120   8.759   4.989
   37DIO    H1651068   1.107   8.606   5.253
   37DIO    H1751069   1.246   8.627   5.148
   37DIO    H1851070   1.237   8.877   5.190
   37DIO    H1951071   1.106   8.848   5.307
   37DIO    H2051072   1.266   8.780   5.335
   38DIO     F151073   4.562   3.767  10.683
   38DIO     C151074   4.640   3.874  10.658
   38DIO     C251075   4.784   3.862  10.669
   38DIO     C351076   4.872   3.978  10.645
   38DIO     C451077   4.807   4.105  10.606
   38DIO     C551078   4.663   4.114  10.595
   38DIO     F251079   4.607   4.231  10.556
   38DIO     C651080   4.579   4.000  10.620
   38DIO     F351081   4.445   4.010  10.611
   38DIO     C751082   5.019   3.968  10.657
   38DIO     C851083   5.096   4.065  10.738
   38DIO     C951084   5.241   4.055  10.750
   38DIO    C1051085   5.313   3.955  10.674
   38DIO    C1151086   5.241   3.853  10.600
   38DIO    C1251087   5.097   3.861  10.590
   38DIO     F451088   5.032   3.769  10.517
   38DIO     O151089   5.445   3.936  10.708
   38DIO    C1351090   5.540   3.902  10.612
   38DIO     O251091   5.541   3.910  10.487
   38DIO    C1451092   5.669   3.864  10.671
   38DIO    C1551093   5.735   3.948  10.774
   38DIO     F551094   5.673   4.056  10.823
   38DIO    C1651095   5.866   3.916  10.828
   38DIO    C1751096   5.942   3.802  10.776
   38DIO    C1851097   5.873   3.709  10.688
   38DIO    C1951098   5.742   3.740  10.635
   38DIO     F651099   5.679   3.643  10.565
   38DIO    C2051100   6.083   3.774  10.824
   38DIO     O351101   6.152   3.891  10.870
   38DIO    C2151102   6.196   3.974  10.763
   38DIO    C2251103   6.285   3.897  10.666
   38DIO    C2351104   6.204   3.776  10.619
   38DIO     O451105   6.160   3.698  10.730
   38DIO    C2451106   6.418   3.850  10.730
   38DIO    C2551107   6.508   3.961  10.784
   38DIO    C2651108   6.547   4.065  10.681
   38DIO     H151109   4.826   3.766  10.696
   38DIO     H251110   4.868   4.190  10.578
   38DIO     H351111   5.044   4.142  10.794
   38DIO     H451112   5.296   4.121  10.815
   38DIO     H551113   5.295   3.776  10.548
   38DIO     H651114   5.904   3.976  10.909
   38DIO     H751115   5.916   3.613  10.664
   38DIO     H851116   6.073   3.710  10.912
   38DIO     H951117   6.109   4.016  10.711
   38DIO    H1051118   6.249   4.059  10.806
   38DIO    H1151119   6.307   3.960  10.579
   38DIO    H1251120   6.265   3.711  10.555
   38DIO    H1351121   6.118   3.807  10.559
   38DIO    H1451122   6.398   3.780  10.811
   38DIO    H1551123   6.474   3.794  10.654
   38DIO    H1651124   6.461   4.010  10.870
   38DIO    H1751125   6.600   3.914  10.822
   38DIO    H1851126   6.591   4.019  10.592
   38DIO    H1951127   6.460   4.125  10.650
   38DIO    H2051128   6.620   4.135  10.723
   39DIO     F151129   4.237   9.855   3.419
   39DIO     C151130   4.315   9.883   3.313
   39DIO     C251131   4.459   9.888   3.329
   39DIO     C351132   4.548   9.921   3.216
   39DIO     C451133   4.482   9.946   3.085
   39DIO     C551134   4.338   9.941   3.071
   39DIO     F251135   4.282   9.960   2.950
   39DIO     C651136   4.254   9.909   3.185
   39DIO     F351137   4.120   9.906   3.171
   39DIO     C751138   4.694   9.927   3.230
   39DIO     C851139   4.771  10.044   3.182
   39DIO     C951140   4.916  10.050   3.196
   39DIO    C1051141   4.988   9.936   3.249
   39DIO    C1151142   4.916   9.822   3.304
   39DIO    C1251143   4.772   9.818   3.293
   39DIO     F451144   4.707   9.709   3.340
   39DIO     O151145   5.121   9.957   3.282
   39DIO    C1351146   5.215   9.856   3.267
   39DIO     O251147   5.216   9.749   3.201
   39DIO    C1451148   5.344   9.890   3.328
   39DIO    C1551149   5.410  10.020   3.302
   39DIO     F551150   5.348  10.115   3.230
   39DIO    C1651151   5.541  10.053   3.356
   39DIO    C1751152   5.617   9.954   3.432
   39DIO    C1851153   5.548   9.832   3.473
   39DIO    C1951154   5.417   9.800   3.420
   39DIO     F651155   5.354   9.693   3.473
   39DIO    C2051156   5.758   9.983   3.479
   39DIO     O351157   5.827  10.078   3.398
   39DIO    C2151158   5.871  10.023   3.274
   39DIO    C2251159   5.960   9.901   3.297
   39DIO    C2351160   5.879   9.803   3.382
   39DIO     O451161   5.835   9.865   3.502
   39DIO    C2451162   6.093   9.935   3.368
   39DIO    C2551163   6.183  10.035   3.296
   39DIO    C2651164   6.222   9.993   3.155
   39DIO     H151165   4.501   9.867   3.427
   39DIO     H251166   4.543   9.961   2.996
   39DIO     H351167   4.720  10.129   3.140
   39DIO     H451168   4.971  10.138   3.169
   39DIO     H551169   4.970   9.740   3.349
   39DIO     H651170   5.579  10.153   3.341
   39DIO     H751171   5.591   9.766   3.547
   39DIO     H851172   5.748  10.031   3.577
   39DIO     H951173   5.784   9.996   3.213
   39DIO    H1051174   5.924  10.101   3.219
   39DIO    H1151175   5.983   9.854   3.200
   39DIO    H1251176   5.940   9.716   3.409
   39DIO    H1351177   5.793   9.764   3.326
   39DIO    H1451178   6.073   9.974   3.469
   39DIO    H1551179   6.149   9.842   3.382
   39DIO    H1651180   6.136  10.134   3.293
   39DIO    H1751181   6.275  10.048   3.355
   39DIO    H1851182   6.266   9.893   3.154
   39DIO    H1951183   6.135   9.994   3.088
   39DIO    H2051184   6.296  10.063   3.114
   40DIO     F151185   7.369   0.247   2.526
   40DIO     C151186   7.447   0.330   2.598
   40DIO     C251187   7.591   0.313   2.595
   40DIO     C351188   7.680   0.400   2.675
   40DIO     C451189   7.614   0.506   2.756
   40DIO     C551190   7.470   0.520   2.757
   40DIO     F251191   7.415   0.620   2.829
   40DIO     C651192   7.386   0.433   2.678
   40DIO     F351193   7.253   0.447   2.681
   40DIO     C751194   7.826   0.384   2.674
   40DIO     C851195   7.903   0.375   2.800
   40DIO     C951196   8.048   0.360   2.799
   40DIO    C1051197   8.121   0.363   2.674
   40DIO    C1151198   8.048   0.364   2.548
   40DIO    C1251199   7.904   0.377   2.549
   40DIO     F451200   7.839   0.383   2.431
   40DIO     O151201   8.253   0.325   2.679
   40DIO    C1351202   8.347   0.383   2.594
   40DIO     O251203   8.348   0.490   2.528
   40DIO    C1451204   8.477   0.313   2.598
   40DIO    C1551205   8.543   0.278   2.726
   40DIO     F551206   8.480   0.301   2.843
   40DIO    C1651207   8.674   0.216   2.731
   40DIO    C1751208   8.749   0.191   2.609
   40DIO    C1851209   8.681   0.209   2.482
   40DIO    C1951210   8.549   0.270   2.476
   40DIO     F651211   8.487   0.270   2.357
   40DIO    C2051212   8.890   0.136   2.614
   40DIO     O351213   8.960   0.167   2.735
   40DIO    C2151214   9.004   0.302   2.741
   40DIO    C2251215   9.092   0.336   2.622
   40DIO    C2351216   9.012   0.304   2.496
   40DIO     O451217   8.967   0.168   2.498
   40DIO    C2451218   9.225   0.257   2.621
   40DIO    C2551219   9.316   0.277   2.742
   40DIO    C2651220   9.354   0.422   2.767
   40DIO     H151221   7.634   0.235   2.533
   40DIO     H251222   7.675   0.579   2.808
   40DIO     H351223   7.852   0.375   2.895
   40DIO     H451224   8.103   0.345   2.891
   40DIO     H551225   8.103   0.361   2.454
   40DIO     H651226   8.712   0.185   2.828
   40DIO     H751227   8.724   0.172   2.389
   40DIO     H851228   8.880   0.027   2.613
   40DIO     H951229   8.917   0.369   2.744
   40DIO    H1051230   9.056   0.317   2.835
   40DIO    H1151231   9.115   0.443   2.622
   40DIO    H1251232   9.073   0.318   2.406
   40DIO    H1351233   8.926   0.371   2.486
   40DIO    H1451234   9.205   0.150   2.611
   40DIO    H1551235   9.282   0.286   2.531
   40DIO    H1651236   9.269   0.236   2.832
   40DIO    H1751237   9.408   0.219   2.727
   40DIO    H1851238   9.398   0.468   2.678
   40DIO    H1951239   9.268   0.482   2.797
   40DIO    H2051240   9.428   0.428   2.848
   41DIO     F151241   5.049  10.817   5.624
   41DIO     C151242   5.126  10.827   5.733
   41DIO     C251243   5.271  10.817   5.719
   41DIO     C351244   5.359  10.824   5.837
   41DIO     C451245   5.294  10.845   5.969
   41DIO     C551246   5.150  10.854   5.980
   41DIO     F251247   5.094  10.877   6.101
   41DIO     C651248   5.066  10.846   5.863
   41DIO     F351249   4.932  10.854   5.875
   41DIO     C751250   5.506  10.813   5.826
   41DIO     C851251   5.583  10.720   5.911
   41DIO     C951252   5.728  10.710   5.899
   41DIO    C1051253   5.800  10.799   5.811
   41DIO    C1151254   5.728  10.887   5.721
   41DIO    C1251255   5.584  10.895   5.730
   41DIO     F451256   5.519  10.981   5.649
   41DIO     O151257   5.932  10.767   5.788
   41DIO    C1351258   6.027  10.868   5.767
   41DIO     O251259   6.028  10.991   5.793
   41DIO    C1451260   6.156  10.815   5.722
   41DIO    C1551261   6.222  10.701   5.790
   41DIO     F551262   6.160  10.637   5.890
   41DIO    C1651263   6.353  10.652   5.750
   41DIO    C1751264   6.429  10.719   5.645
   41DIO    C1851265   6.360  10.820   5.566
   41DIO    C1951266   6.228  10.868   5.604
   41DIO     F651267   6.166  10.951   5.518
   41DIO    C2051268   6.570  10.676   5.611
   41DIO     O351269   6.639  10.614   5.719
   41DIO    C2151270   6.683  10.708   5.817
   41DIO    C2251271   6.772  10.815   5.755
   41DIO    C2351272   6.691  10.879   5.641
   41DIO     O451273   6.647  10.780   5.549
   41DIO    C2451274   6.905  10.759   5.699
   41DIO    C2551275   6.995  10.689   5.801
   41DIO    C2651276   7.034  10.777   5.919
   41DIO     H151277   5.313  10.803   5.621
   41DIO     H251278   5.354  10.861   6.057
   41DIO     H351279   5.531  10.654   5.979
   41DIO     H451280   5.783  10.635   5.955
   41DIO     H551281   5.782  10.949   5.651
   41DIO     H651282   6.391  10.563   5.798
   41DIO     H751283   6.403  10.857   5.473
   41DIO     H851284   6.560  10.598   5.535
   41DIO     H951285   6.596  10.754   5.866
   41DIO    H1051286   6.736  10.653   5.895
   41DIO    H1151287   6.794  10.892   5.829
   41DIO    H1251288   6.752  10.951   5.586
   41DIO    H1351289   6.605  10.934   5.681
   41DIO    H1451290   6.885  10.688   5.618
   41DIO    H1551291   6.961  10.841   5.654
   41DIO    H1651292   6.948  10.597   5.838
   41DIO    H1751293   7.087  10.658   5.750
   41DIO    H1851294   7.078  10.871   5.886
   41DIO    H1951295   6.947  10.799   5.983
   41DIO    H2051296   7.107  10.725   5.982
   42DIO     F151297   4.462   4.825   5.483
   42DIO     C151298   4.540   4.849   5.590
   42DIO     C251299   4.684   4.838   5.578
   42DIO     C351300   4.773   4.861   5.694
   42DIO     C451301   4.707   4.899   5.821
   42DIO     C551302   4.563   4.910   5.831
   42DIO     F251303   4.508   4.949   5.948
   42DIO     C651304   4.479   4.886   5.716
   42DIO     F351305   4.346   4.895   5.727
   42DIO     C751306   4.919   4.849   5.684
   42DIO     C851307   4.996   4.768   5.781
   42DIO     C951308   5.141   4.756   5.771
   42DIO    C1051309   5.214   4.832   5.671
   42DIO    C1151310   5.141   4.907   5.570
   42DIO    C1251311   4.997   4.917   5.578
   42DIO     F451312   4.932   4.991   5.486
   42DIO     O151313   5.346   4.798   5.653
   42DIO    C1351314   5.440   4.895   5.619
   42DIO     O251315   5.441   5.020   5.628
   42DIO    C1451316   5.569   4.836   5.581
   42DIO    C1551317   5.636   4.733   5.663
   42DIO     F551318   5.573   4.683   5.772
   42DIO    C1651319   5.767   4.679   5.631
   42DIO    C1751320   5.842   4.731   5.518
   42DIO    C1851321   5.774   4.820   5.425
   42DIO    C1951322   5.642   4.873   5.457
   42DIO     F651323   5.579   4.943   5.360
   42DIO    C2051324   5.983   4.684   5.489
   42DIO     O351325   6.053   4.637   5.606
   42DIO    C2151326   6.096   4.743   5.690
   42DIO    C2251327   6.185   4.841   5.613
   42DIO    C2351328   6.105   4.889   5.493
   42DIO     O451329   6.060   4.778   5.414
   42DIO    C2451330   6.318   4.778   5.566
   42DIO    C2551331   6.409   4.722   5.676
   42DIO    C2651332   6.447   4.825   5.782
   42DIO     H151333   4.727   4.811   5.482
   42DIO     H251334   4.768   4.927   5.907
   42DIO     H351335   4.945   4.712   5.857
   42DIO     H451336   5.196   4.690   5.837
   42DIO     H551337   5.196   4.960   5.493
   42DIO     H651338   5.805   4.597   5.691
   42DIO     H751339   5.816   4.844   5.329
   42DIO     H851340   5.973   4.596   5.425
   42DIO     H951341   6.010   4.795   5.732
   42DIO    H1051342   6.149   4.699   5.775
   42DIO    H1151343   6.208   4.927   5.677
   42DIO    H1251344   6.166   4.953   5.428
   42DIO    H1351345   6.018   4.949   5.524
   42DIO    H1451346   6.298   4.696   5.495
   42DIO    H1551347   6.375   4.853   5.510
   42DIO    H1651348   6.361   4.636   5.725
   42DIO    H1751349   6.501   4.684   5.630
   42DIO    H1851350   6.491   4.914   5.736
   42DIO    H1951351   6.361   4.856   5.841
   42DIO    H2051352   6.521   4.783   5.851
   43DIO     F151353   3.828   3.514   4.560
   43DIO     C151354   3.906   3.474   4.662
   43DIO     C251355   4.050   3.471   4.645
   43DIO     C351356   4.139   3.425   4.755
   43DIO     C451357   4.073   3.386   4.882
   43DIO     C551358   3.929   3.389   4.896
   43DIO     F251359   3.873   3.356   5.014
   43DIO     C651360   3.845   3.433   4.787
   43DIO     F351361   3.711   3.435   4.801
   43DIO     C751362   4.285   3.421   4.739
   43DIO     C851363   4.362   3.299   4.774
   43DIO     C951364   4.507   3.295   4.760
   43DIO    C1051365   4.579   3.414   4.720
   43DIO    C1151366   4.507   3.533   4.678
   43DIO    C1251367   4.363   3.536   4.690
   43DIO     F451368   4.298   3.649   4.655
   43DIO     O151369   4.712   3.396   4.685
   43DIO    C1351370   4.806   3.495   4.711
   43DIO     O251371   4.807   3.594   4.789
   43DIO    C1451372   4.935   3.468   4.647
   43DIO    C1551373   5.001   3.336   4.657
   43DIO     F551374   4.939   3.234   4.719
   43DIO    C1651375   5.132   3.310   4.600
   43DIO    C1751376   5.208   3.416   4.536
   43DIO    C1851377   5.139   3.542   4.509
   43DIO    C1951378   5.008   3.568   4.565
   43DIO     F651379   4.945   3.680   4.524
   43DIO    C2051380   5.349   3.393   4.486
   43DIO     O351381   5.418   3.289   4.556
   43DIO    C2151382   5.462   3.330   4.685
   43DIO    C2251383   5.551   3.454   4.676
   43DIO    C2351384   5.470   3.561   4.603
   43DIO     O451385   5.426   3.513   4.476
   43DIO    C2451386   5.684   3.428   4.602
   43DIO    C2551387   5.774   3.320   4.662
   43DIO    C2651388   5.813   3.346   4.807
   43DIO     H151389   4.092   3.503   4.551
   43DIO     H251390   4.134   3.361   4.968
   43DIO     H351391   4.311   3.210   4.806
   43DIO     H451392   4.562   3.204   4.777
   43DIO     H551393   4.561   3.620   4.643
   43DIO     H651394   5.170   3.208   4.604
   43DIO     H751395   5.182   3.616   4.443
   43DIO     H851396   5.339   3.357   4.383
   43DIO     H951397   5.375   3.350   4.749
   43DIO    H1051398   5.515   3.246   4.731
   43DIO    H1151399   5.574   3.490   4.777
   43DIO    H1251400   5.531   3.650   4.586
   43DIO    H1351401   5.384   3.593   4.663
   43DIO    H1451402   5.664   3.400   4.497
   43DIO    H1551403   5.740   3.522   4.598
   43DIO    H1651404   5.727   3.222   4.654
   43DIO    H1751405   5.866   3.315   4.602
   43DIO    H1851406   5.857   3.446   4.819
   43DIO    H1951407   5.726   3.339   4.874
   43DIO    H2051408   5.887   3.273   4.840
   44DIO     F151409   3.292   6.177   3.482
   44DIO     C151410   3.370   6.280   3.444
   44DIO     C251411   3.514   6.270   3.458
   44DIO     C351412   3.603   6.382   3.419
   44DIO     C451413   3.537   6.503   3.365
   44DIO     C551414   3.393   6.511   3.353
   44DIO     F251415   3.338   6.622   3.299
   44DIO     C651416   3.309   6.400   3.392
   44DIO     F351417   3.175   6.410   3.381
   44DIO     C751418   3.749   6.373   3.433
   44DIO     C851419   3.826   6.480   3.501
   44DIO     C951420   3.971   6.472   3.513
   44DIO    C1051421   4.044   6.363   3.451
   44DIO    C1151422   3.971   6.253   3.390
   44DIO    C1251423   3.827   6.260   3.379
   44DIO     F451424   3.762   6.159   3.317
   44DIO     O151425   4.176   6.349   3.487
   44DIO    C1351426   4.270   6.303   3.396
   44DIO     O251427   4.271   6.295   3.270
   44DIO    C1451428   4.399   6.273   3.459
   44DIO    C1551429   4.466   6.368   3.550
   44DIO     F551430   4.403   6.482   3.586
   44DIO    C1651431   4.596   6.343   3.608
   44DIO    C1751432   4.672   6.224   3.571
   44DIO    C1851433   4.603   6.121   3.495
   44DIO    C1951434   4.472   6.145   3.438
   44DIO     F651435   4.409   6.040   3.381
   44DIO    C2051436   4.813   6.202   3.622
   44DIO     O351437   4.883   6.323   3.653
   44DIO    C2151438   4.926   6.393   3.536
   44DIO    C2251439   5.015   6.304   3.450
   44DIO    C2351440   4.934   6.178   3.418
   44DIO     O451441   4.890   6.115   3.538
   44DIO    C2451442   5.148   6.266   3.519
   44DIO    C2551443   5.239   6.382   3.559
   44DIO    C2651444   5.277   6.473   3.443
   44DIO     H151445   3.557   6.178   3.496
   44DIO     H251446   3.598   6.584   3.326
   44DIO     H351447   3.775   6.563   3.546
   44DIO     H451448   4.026   6.545   3.570
   44DIO     H551449   4.025   6.169   3.348
   44DIO     H651450   4.635   6.413   3.681
   44DIO     H751451   4.646   6.022   3.483
   44DIO     H851452   4.803   6.149   3.717
   44DIO     H951453   4.840   6.428   3.479
   44DIO    H1051454   4.979   6.483   3.569
   44DIO    H1151455   5.038   6.356   3.356
   44DIO    H1251456   4.996   6.106   3.363
   44DIO    H1351457   4.848   6.202   3.355
   44DIO    H1451458   5.128   6.206   3.609
   44DIO    H1551459   5.204   6.200   3.451
   44DIO    H1651460   5.191   6.442   3.638
   44DIO    H1751461   5.330   6.341   3.603
   44DIO    H1851462   5.321   6.416   3.361
   44DIO    H1951463   5.191   6.528   3.405
   44DIO    H2051464   5.351   6.547   3.477
   45DIO     F151465   3.195   5.839   9.095
   45DIO     C151466   3.272   5.890   8.998
   45DIO     C251467   3.416   5.891   9.015
   45DIO     C351468   3.505   5.949   8.911
   45DIO     C451469   3.440   6.002   8.789
   45DIO     C551470   3.295   6.000   8.775
   45DIO     F251471   3.240   6.047   8.661
   45DIO     C651472   3.212   5.944   8.878
   45DIO     F351473   3.078   5.944   8.864
   45DIO     C751474   3.651   5.951   8.927
   45DIO     C851475   3.729   6.076   8.906
   45DIO     C951476   3.873   6.079   8.921
   45DIO    C1051477   3.946   5.956   8.947
   45DIO    C1151478   3.873   5.833   8.975
   45DIO    C1251479   3.729   5.831   8.963
   45DIO     F451480   3.664   5.715   8.985
   45DIO     O151481   4.078   5.969   8.984
   45DIO    C1351482   4.173   5.874   8.947
   45DIO     O251483   4.173   5.785   8.858
   45DIO    C1451484   4.302   5.894   9.013
   45DIO    C1551485   4.368   6.026   9.018
   45DIO     F551486   4.305   6.135   8.968
   45DIO    C1651487   4.499   6.046   9.077
   45DIO    C1751488   4.575   5.933   9.130
   45DIO    C1851489   4.506   5.805   9.142
   45DIO    C1951490   4.374   5.785   9.084
   45DIO     F651491   4.312   5.669   9.111
   45DIO    C2051492   4.715   5.950   9.182
   45DIO     O351493   4.785   6.061   9.124
   45DIO    C2151494   4.829   6.035   8.991
   45DIO    C2251495   4.918   5.911   8.986
   45DIO    C2351496   4.837   5.797   9.046
   45DIO     O451497   4.793   5.830   9.178
   45DIO    C2451498   5.050   5.929   9.063
   45DIO    C2551499   5.141   6.043   9.015
   45DIO    C2651500   5.179   6.033   8.868
   45DIO     H151501   3.459   5.849   9.105
   45DIO     H251502   3.500   6.037   8.706
   45DIO     H351503   3.677   6.168   8.884
   45DIO     H451504   3.928   6.171   8.914
   45DIO     H551505   3.928   5.743   9.000
   45DIO     H651506   4.537   6.147   9.085
   45DIO     H751507   4.549   5.724   9.199
   45DIO     H851508   4.706   5.975   9.288
   45DIO     H951509   4.742   6.023   8.925
   45DIO    H1051510   4.881   6.124   8.955
   45DIO    H1151511   4.940   5.887   8.881
   45DIO    H1251512   4.898   5.706   9.054
   45DIO    H1351513   4.751   5.772   8.983
   45DIO    H1451514   5.030   5.944   9.170
   45DIO    H1551515   5.107   5.835   9.056
   45DIO    H1651516   5.094   6.140   9.034
   45DIO    H1751517   5.233   6.041   9.075
   45DIO    H1851518   5.223   5.935   8.845
   45DIO    H1951519   5.093   6.048   8.803
   45DIO    H2051520   5.253   6.110   8.843
   46DIO     F151521   8.559   2.169   7.891
   46DIO     C151522   8.636   2.278   7.908
   46DIO     C251523   8.780   2.262   7.915
   46DIO     C351524   8.869   2.378   7.936
   46DIO     C451525   8.804   2.511   7.947
   46DIO     C551526   8.659   2.524   7.941
   46DIO     F251527   8.604   2.647   7.947
   46DIO     C651528   8.576   2.408   7.921
   46DIO     F351529   8.442   2.421   7.916
   46DIO     C751530   9.015   2.364   7.943
   46DIO     C851531   9.093   2.424   8.054
   46DIO     C951532   9.237   2.411   8.062
   46DIO    C1051533   9.310   2.347   7.954
   46DIO    C1151534   9.237   2.280   7.847
   46DIO    C1251535   9.093   2.291   7.841
   46DIO     F451536   9.028   2.233   7.738
   46DIO     O151537   9.442   2.316   7.979
   46DIO    C1351538   9.537   2.321   7.877
   46DIO     O251539   9.537   2.375   7.763
   46DIO    C1451540   9.666   2.264   7.917
   46DIO    C1551541   9.732   2.302   8.044
   46DIO     F551542   9.669   2.385   8.130
   46DIO    C1651543   9.863   2.253   8.082
   46DIO    C1751544   9.939   2.166   7.992
   46DIO    C1851545   9.870   2.113   7.875
   46DIO    C1951546   9.738   2.162   7.837
   46DIO     F651547   9.676   2.098   7.736
   46DIO    C2051548  10.079   2.123   8.025
   46DIO     O351549  10.149   2.214   8.111
   46DIO    C2151550  10.193   2.331   8.043
   46DIO    C2251551  10.282   2.296   7.925
   46DIO    C2351552  10.201   2.201   7.836
   46DIO     O451553  10.157   2.088   7.910
   46DIO    C2451554  10.414   2.228   7.966
   46DIO    C2551555  10.505   2.311   8.058
   46DIO    C2651556  10.543   2.447   8.001
   46DIO     H151557   8.823   2.163   7.904
   46DIO     H251558   8.864   2.601   7.953
   46DIO     H351559   9.041   2.475   8.135
   46DIO     H451560   9.292   2.448   8.147
   46DIO     H551561   9.292   2.227   7.770
   46DIO     H651562   9.901   2.278   8.180
   46DIO     H751563   9.913   2.033   7.817
   46DIO     H851564  10.070   2.030   8.083
   46DIO     H951565  10.106   2.389   8.011
   46DIO    H1051566  10.245   2.394   8.116
   46DIO    H1151567  10.304   2.387   7.868
   46DIO    H1251568  10.262   2.165   7.753
   46DIO    H1351569  10.115   2.253   7.792
   46DIO    H1451570  10.394   2.132   8.016
   46DIO    H1551571  10.471   2.205   7.875
   46DIO    H1651572  10.458   2.324   8.156
   46DIO    H1751573  10.597   2.253   8.076
   46DIO    H1851574  10.587   2.437   7.902
   46DIO    H1951575  10.457   2.513   7.995
   46DIO    H2051576  10.617   2.495   8.066
   47DIO     F151577   2.546   8.829   8.976
   47DIO     C151578   2.624   8.734   9.031
   47DIO     C251579   2.768   8.742   9.016
   47DIO     C351580   2.856   8.638   9.073
   47DIO     C451581   2.791   8.527   9.146
   47DIO     C551582   2.647   8.521   9.159
   47DIO     F251583   2.591   8.421   9.231
   47DIO     C651584   2.563   8.624   9.103
   47DIO     F351585   2.429   8.617   9.115
   47DIO     C751586   3.003   8.644   9.058
   47DIO     C851587   3.080   8.528   9.008
   47DIO     C951588   3.225   8.534   8.994
   47DIO    C1051589   3.297   8.652   9.038
   47DIO    C1151590   3.225   8.770   9.080
   47DIO    C1251591   3.081   8.765   9.092
   47DIO     F451592   3.016   8.875   9.136
   47DIO     O151593   3.429   8.660   9.000
   47DIO    C1351594   3.524   8.720   9.082
   47DIO     O251595   3.525   8.748   9.205
   47DIO    C1451596   3.653   8.739   9.016
   47DIO    C1551597   3.719   8.630   8.941
   47DIO     F551598   3.657   8.512   8.924
   47DIO    C1651599   3.850   8.645   8.880
   47DIO    C1751600   3.926   8.769   8.896
   47DIO    C1851601   3.857   8.883   8.955
   47DIO    C1951602   3.726   8.868   9.014
   47DIO     F651603   3.663   8.982   9.053
   47DIO    C2051604   4.067   8.782   8.843
   47DIO     O351605   4.136   8.657   8.833
   47DIO    C2151606   4.180   8.608   8.959
   47DIO    C2251607   4.269   8.710   9.029
   47DIO    C2351608   4.188   8.839   9.040
   47DIO     O451609   4.144   8.881   8.911
   47DIO    C2451610   4.402   8.736   8.955
   47DIO    C2551611   4.492   8.614   8.935
   47DIO    C2651612   4.531   8.544   9.064
   47DIO     H151613   2.810   8.826   8.963
   47DIO     H251614   2.852   8.454   9.198
   47DIO     H351615   3.028   8.438   8.977
   47DIO     H451616   3.280   8.452   8.950
   47DIO     H551617   3.279   8.860   9.108
   47DIO     H651618   3.888   8.564   8.819
   47DIO     H751619   3.900   8.983   8.950
   47DIO     H851620   4.057   8.818   8.740
   47DIO     H951621   4.093   8.583   9.021
   47DIO    H1051622   4.233   8.514   8.941
   47DIO    H1151623   4.291   8.674   9.131
   47DIO    H1251624   4.249   8.919   9.082
   47DIO    H1351625   4.102   8.826   9.107
   47DIO    H1451626   4.382   8.780   8.857
   47DIO    H1551627   4.458   8.812   9.011
   47DIO    H1651628   4.445   8.543   8.866
   47DIO    H1751629   4.584   8.648   8.885
   47DIO    H1851630   4.575   8.614   9.135
   47DIO    H1951631   4.444   8.496   9.110
   47DIO    H2051632   4.604   8.466   9.043
   48DIO     F151633   3.663   5.799   4.317
   48DIO     C151634   3.740   5.881   4.244
   48DIO     C251635   3.884   5.876   4.260
   48DIO     C351636   3.973   5.966   4.183
   48DIO     C451637   3.908   6.059   4.087
   48DIO     C551638   3.763   6.062   4.073
   48DIO     F251639   3.708   6.145   3.983
   48DIO     C651640   3.680   5.973   4.150
   48DIO     F351641   3.546   5.978   4.137
   48DIO     C751642   4.120   5.963   4.198
   48DIO     C851643   4.197   6.087   4.222
   48DIO     C951644   4.341   6.084   4.237
   48DIO    C1051645   4.414   5.960   4.219
   48DIO    C1151646   4.341   5.835   4.203
   48DIO    C1251647   4.197   5.838   4.191
   48DIO     F451648   4.132   5.721   4.171
   48DIO     O151649   4.546   5.960   4.258
   48DIO    C1351650   4.641   5.884   4.190
   48DIO     O251651   4.642   5.830   4.076
   48DIO    C1451652   4.770   5.879   4.260
   48DIO    C1551653   4.836   6.001   4.310
   48DIO     F551654   4.773   6.121   4.301
   48DIO    C1651655   4.967   6.000   4.373
   48DIO    C1751656   5.043   5.875   4.382
   48DIO    C1851657   4.974   5.751   4.349
   48DIO    C1951658   4.842   5.753   4.288
   48DIO     F651659   4.780   5.634   4.274
   48DIO    C2051660   5.183   5.874   4.437
   48DIO     O351661   5.253   5.998   4.421
   48DIO    C2151662   5.297   6.019   4.288
   48DIO    C2251663   5.386   5.905   4.240
   48DIO    C2351664   5.305   5.776   4.257
   48DIO     O451665   5.261   5.762   4.392
   48DIO    C2451666   5.518   5.895   4.318
   48DIO    C2551667   5.609   6.018   4.313
   48DIO    C2651668   5.648   6.060   4.172
   48DIO     H151669   3.927   5.805   4.330
   48DIO     H251670   3.968   6.120   4.021
   48DIO     H351671   4.145   6.181   4.234
   48DIO     H451672   4.396   6.174   4.263
   48DIO     H551673   4.396   5.742   4.195
   48DIO     H651674   5.005   6.092   4.415
   48DIO     H751675   5.017   5.655   4.375
   48DIO     H851676   5.174   5.860   4.546
   48DIO     H951677   5.210   6.031   4.222
   48DIO    H1051678   5.350   6.115   4.285
   48DIO    H1151679   5.408   5.919   4.134
   48DIO    H1251680   5.366   5.689   4.232
   48DIO    H1351681   5.219   5.775   4.189
   48DIO    H1451682   5.499   5.872   4.424
   48DIO    H1551683   5.575   5.809   4.279
   48DIO    H1651684   5.562   6.102   4.364
   48DIO    H1751685   5.701   5.996   4.369
   48DIO    H1851686   5.691   5.976   4.116
   48DIO    H1951687   5.561   6.097   4.116
   48DIO    H2051688   5.721   6.141   4.175
   49DIO     F151689   2.019   6.653   7.541
   49DIO     C151690   2.097   6.725   7.458
   49DIO     C251691   2.241   6.722   7.474
   49DIO     C351692   2.330   6.801   7.386
   49DIO     C451693   2.264   6.881   7.280
   49DIO     C551694   2.120   6.882   7.266
   49DIO     F251695   2.064   6.953   7.165
   49DIO     C651696   2.036   6.804   7.354
   49DIO     F351697   1.902   6.807   7.340
   49DIO     C751698   2.476   6.801   7.402
   49DIO     C851699   2.553   6.927   7.410
   49DIO     C951700   2.698   6.926   7.425
   49DIO    C1051701   2.770   6.800   7.423
   49DIO    C1151702   2.698   6.674   7.423
   49DIO    C1251703   2.554   6.675   7.411
   49DIO     F451704   2.489   6.557   7.406
   49DIO     O151705   2.903   6.805   7.462
   49DIO    C1351706   2.997   6.721   7.404
   49DIO     O251707   2.998   6.653   7.298
   49DIO    C1451708   3.126   6.725   7.474
   49DIO    C1551709   3.193   6.853   7.508
   49DIO     F551710   3.130   6.970   7.484
   49DIO    C1651711   3.323   6.859   7.571
   49DIO    C1751712   3.399   6.737   7.596
   49DIO    C1851713   3.330   6.610   7.579
   49DIO    C1951714   3.199   6.604   7.518
   49DIO     F651715   3.136   6.484   7.519
   49DIO    C2051716   3.540   6.742   7.651
   49DIO     O351717   3.610   6.863   7.619
   49DIO    C2151718   3.653   6.868   7.484
   49DIO    C2251719   3.742   6.748   7.451
   49DIO    C2351720   3.661   6.623   7.484
   49DIO     O451721   3.617   6.626   7.620
   49DIO    C2451722   3.875   6.748   7.530
   49DIO    C2551723   3.966   6.870   7.509
   49DIO    C2651724   4.004   6.893   7.363
   49DIO     H151725   2.283   6.661   7.553
   49DIO     H251726   2.325   6.933   7.207
   49DIO     H351727   2.502   7.022   7.410
   49DIO     H451728   2.753   7.018   7.439
   49DIO     H551729   2.752   6.581   7.427
   49DIO     H651730   3.361   6.956   7.601
   49DIO     H751731   3.373   6.518   7.617
   49DIO     H851732   3.530   6.742   7.760
   49DIO     H951733   3.567   6.871   7.417
   49DIO    H1051734   3.706   6.962   7.469
   49DIO    H1151735   3.765   6.748   7.344
   49DIO    H1251736   3.722   6.533   7.471
   49DIO    H1351737   3.575   6.613   7.417
   49DIO    H1451738   3.855   6.739   7.637
   49DIO    H1551739   3.931   6.658   7.502
   49DIO    H1651740   3.918   6.960   7.549
   49DIO    H1751741   4.057   6.855   7.567
   49DIO    H1851742   4.048   6.803   7.319
   49DIO    H1951743   3.917   6.923   7.303
   49DIO    H2051744   4.078   6.974   7.357
   50DIO     F151745   0.880   6.421   0.769
   50DIO     C151746   0.958   6.531   0.759
   50DIO     C251747   1.102   6.517   0.768
   50DIO     C351748   1.191   6.635   0.760
   50DIO     C451749   1.125   6.766   0.739
   50DIO     C551750   0.981   6.777   0.730
   50DIO     F251751   0.926   6.898   0.706
   50DIO     C651752   0.897   6.660   0.739
   50DIO     F351753   0.764   6.672   0.731
   50DIO     C751754   1.337   6.623   0.771
   50DIO     C851755   1.414   6.708   0.864
   50DIO     C951756   1.559   6.697   0.875
   50DIO    C1051757   1.632   6.609   0.786
   50DIO    C1151758   1.559   6.518   0.699
   50DIO    C1251759   1.415   6.527   0.690
   50DIO     F451760   1.350   6.446   0.604
   50DIO     O151761   1.764   6.585   0.817
   50DIO    C1351762   1.858   6.565   0.717
   50DIO     O251763   1.859   6.590   0.594
   50DIO    C1451764   1.988   6.519   0.770
   50DIO    C1551765   2.054   6.588   0.883
   50DIO     F551766   1.991   6.689   0.947
   50DIO    C1651767   2.185   6.549   0.933
   50DIO    C1751768   2.260   6.443   0.866
   50DIO    C1851769   2.192   6.363   0.766
   50DIO    C1951770   2.060   6.401   0.718
   50DIO     F651771   1.998   6.314   0.635
   50DIO    C2051772   2.401   6.409   0.909
   50DIO     O351773   2.471   6.518   0.971
   50DIO    C2151774   2.515   6.615   0.876
   50DIO    C2251775   2.603   6.552   0.770
   50DIO    C2351776   2.523   6.439   0.707
   50DIO     O451777   2.478   6.347   0.806
   50DIO    C2451778   2.736   6.497   0.826
   50DIO    C2551779   2.827   6.599   0.896
   50DIO    C2651780   2.865   6.717   0.807
   50DIO     H151781   1.145   6.418   0.782
   50DIO     H251782   1.186   6.855   0.722
   50DIO     H351783   1.363   6.777   0.930
   50DIO     H451784   1.614   6.754   0.949
   50DIO     H551785   1.614   6.448   0.637
   50DIO     H651786   2.223   6.597   1.022
   50DIO     H751787   2.235   6.271   0.729
   50DIO     H851788   2.391   6.333   0.988
   50DIO     H951789   2.428   6.664   0.830
   50DIO    H1051790   2.567   6.694   0.931
   50DIO    H1151791   2.626   6.626   0.692
   50DIO    H1251792   2.584   6.383   0.635
   50DIO    H1351793   2.437   6.478   0.651
   50DIO    H1451794   2.716   6.416   0.898
   50DIO    H1551795   2.793   6.452   0.744
   50DIO    H1651796   2.780   6.636   0.987
   50DIO    H1751797   2.919   6.548   0.927
   50DIO    H1851798   2.909   6.683   0.713
   50DIO    H1951799   2.779   6.780   0.785
   50DIO    H2051800   2.939   6.780   0.859
   51DIO     F151801   7.582   4.663   4.696
   51DIO     C151802   7.659   4.746   4.624
   51DIO     C251803   7.803   4.741   4.640
   51DIO     C351804   7.892   4.833   4.565
   51DIO     C451805   7.827   4.927   4.472
   51DIO     C551806   7.682   4.931   4.458
   51DIO     F251807   7.627   5.015   4.369
   51DIO     C651808   7.599   4.840   4.533
   51DIO     F351809   7.465   4.845   4.520
   51DIO     C751810   8.039   4.829   4.581
   51DIO     C851811   8.116   4.953   4.607
   51DIO     C951812   8.260   4.950   4.622
   51DIO    C1051813   8.333   4.826   4.601
   51DIO    C1151814   8.261   4.701   4.583
   51DIO    C1251815   8.116   4.704   4.571
   51DIO     F451816   8.052   4.588   4.548
   51DIO     O151817   8.465   4.825   4.641
   51DIO    C1351818   8.560   4.750   4.571
   51DIO     O251819   8.561   4.699   4.456
   51DIO    C1451820   8.689   4.744   4.640
   51DIO    C1551821   8.755   4.865   4.693
   51DIO     F551822   8.693   4.985   4.687
   51DIO    C1651823   8.886   4.862   4.756
   51DIO    C1751824   8.962   4.738   4.763
   51DIO    C1851825   8.893   4.614   4.727
   51DIO    C1951826   8.761   4.618   4.666
   51DIO     F651827   8.699   4.499   4.649
   51DIO    C2051828   9.102   4.735   4.818
   51DIO     O351829   9.172   4.859   4.805
   51DIO    C2151830   9.216   4.884   4.671
   51DIO    C2251831   9.305   4.771   4.621
   51DIO    C2351832   9.224   4.642   4.635
   51DIO     O451833   9.180   4.624   4.770
   51DIO    C2451834   9.438   4.758   4.699
   51DIO    C2551835   9.528   4.882   4.696
   51DIO    C2651836   9.567   4.927   4.556
   51DIO     H151837   7.846   4.669   4.709
   51DIO     H251838   7.887   4.990   4.407
   51DIO     H351839   8.064   5.047   4.621
   51DIO     H451840   8.316   5.039   4.650
   51DIO     H551841   8.315   4.609   4.573
   51DIO     H651842   8.924   4.953   4.800
   51DIO     H751843   8.936   4.518   4.751
   51DIO     H851844   9.093   4.719   4.926
   51DIO     H951845   9.129   4.897   4.606
   51DIO    H1051846   9.269   4.980   4.671
   51DIO    H1151847   9.327   4.786   4.515
   51DIO    H1251848   9.285   4.555   4.609
   51DIO    H1351849   9.138   4.642   4.567
   51DIO    H1451850   9.418   4.734   4.804
   51DIO    H1551851   9.494   4.674   4.658
   51DIO    H1651852   9.481   4.965   4.750
   51DIO    H1751853   9.620   4.858   4.752
   51DIO    H1851854   9.611   4.845   4.499
   51DIO    H1951855   9.480   4.965   4.501
   51DIO    H2051856   9.640   5.008   4.562
   52DIO     F151857   5.507   0.027  -0.817
   52DIO     C151858   5.584  -0.030  -0.723
   52DIO     C251859   5.728  -0.030  -0.740
   52DIO     C351860   5.817  -0.094  -0.640
   52DIO     C451861   5.752  -0.155  -0.522
   52DIO     C551862   5.607  -0.153  -0.507
   52DIO     F251863   5.552  -0.206  -0.396
   52DIO     C651864   5.524  -0.091  -0.607
   52DIO     F351865   5.390  -0.092  -0.593
   52DIO     C751866   5.964  -0.096  -0.656
   52DIO     C851867   6.041  -0.221  -0.642
   52DIO     C951868   6.185  -0.223  -0.657
   52DIO    C1051869   6.258  -0.099  -0.676
   52DIO    C1151870   6.185   0.025  -0.697
   52DIO    C1251871   6.041   0.027  -0.685
   52DIO     F451872   5.976   0.144  -0.699
   52DIO     O151873   6.390  -0.110  -0.714
   52DIO    C1351874   6.485  -0.017  -0.671
   52DIO     O251875   6.486   0.067  -0.577
   52DIO    C1451876   6.614  -0.033  -0.739
   52DIO    C1551877   6.680  -0.165  -0.751
   52DIO     F551878   6.617  -0.276  -0.708
   52DIO    C1651879   6.811  -0.181  -0.812
   52DIO    C1751880   6.887  -0.065  -0.857
   52DIO    C1851881   6.818   0.063  -0.862
   52DIO    C1951882   6.686   0.079  -0.803
   52DIO     F651883   6.624   0.197  -0.824
   52DIO    C2051884   7.027  -0.080  -0.910
   52DIO     O351885   7.097  -0.194  -0.859
   52DIO    C2151886   7.141  -0.176  -0.725
   52DIO    C2251887   7.230  -0.052  -0.712
   52DIO    C2351888   7.149   0.066  -0.766
   52DIO     O451889   7.105   0.040  -0.899
   52DIO    C2451890   7.362  -0.065  -0.790
   52DIO    C2551891   7.453  -0.182  -0.749
   52DIO    C2651892   7.492  -0.180  -0.602
   52DIO     H151893   5.771   0.017  -0.827
   52DIO     H251894   5.812  -0.194  -0.441
   52DIO     H351895   5.989  -0.315  -0.626
   52DIO     H451896   6.240  -0.316  -0.656
   52DIO     H551897   6.240   0.117  -0.717
   52DIO     H651898   6.849  -0.282  -0.825
   52DIO     H751899   6.861   0.147  -0.915
   52DIO     H851900   7.018  -0.098  -1.018
   52DIO     H951901   7.054  -0.167  -0.658
   52DIO    H1051902   7.194  -0.266  -0.694
   52DIO    H1151903   7.252  -0.034  -0.607
   52DIO    H1251904   7.210   0.157  -0.768
   52DIO    H1351905   7.063   0.087  -0.701
   52DIO    H1451906   7.343  -0.074  -0.898
   52DIO    H1551907   7.419   0.028  -0.778
   52DIO    H1651908   7.406  -0.277  -0.774
   52DIO    H1751909   7.545  -0.177  -0.809
   52DIO    H1851910   7.535  -0.084  -0.573
   52DIO    H1951911   7.405  -0.200  -0.537
   52DIO    H2051912   7.565  -0.259  -0.582
   53DIO     F151913   6.609   0.278   6.043
   53DIO     C151914   6.687   0.179   5.997
   53DIO     C251915   6.831   0.195   5.996
   53DIO     C351916   6.920   0.089   5.944
   53DIO     C451917   6.854  -0.035   5.897
   53DIO     C551918   6.710  -0.050   5.899
   53DIO     F251919   6.654  -0.166   5.860
   53DIO     C651920   6.626   0.056   5.950
   53DIO     F351921   6.492   0.042   5.951
   53DIO     C751922   7.066   0.104   5.940
   53DIO     C851923   7.143   0.077   5.817
   53DIO     C951924   7.288   0.092   5.813
   53DIO    C1051925   7.360   0.125   5.935
   53DIO    C1151926   7.288   0.160   6.056
   53DIO    C1251927   7.144   0.147   6.058
   53DIO     F451928   7.079   0.175   6.173
   53DIO     O151929   7.493   0.160   5.919
   53DIO    C1351930   7.587   0.128   6.016
   53DIO     O251931   7.588   0.045   6.110
   53DIO    C1451932   7.716   0.194   5.993
   53DIO    C1551933   7.782   0.191   5.861
   53DIO     F551934   7.720   0.136   5.755
   53DIO    C1651935   7.913   0.250   5.837
   53DIO    C1751936   7.989   0.308   5.947
   53DIO    C1851937   7.920   0.327   6.075
   53DIO    C1951938   7.789   0.270   6.097
   53DIO     F651939   7.726   0.304   6.212
   53DIO    C2051940   8.130   0.359   5.927
   53DIO     O351941   8.199   0.295   5.820
   53DIO    C2151942   8.243   0.164   5.853
   53DIO    C2251943   8.332   0.166   5.977
   53DIO    C2351944   8.251   0.232   6.088
   53DIO     O451945   8.207   0.362   6.048
   53DIO    C2451946   8.465   0.241   5.955
   53DIO    C2551947   8.555   0.187   5.844
   53DIO    C2651948   8.594   0.041   5.862
   53DIO     H151949   6.873   0.288   6.033
   53DIO     H251950   6.915  -0.120   5.867
   53DIO     H351951   7.092   0.050   5.726
   53DIO     H451952   7.343   0.080   5.721
   53DIO     H551953   7.342   0.189   6.144
   53DIO     H651954   7.951   0.252   5.736
   53DIO     H751955   7.963   0.389   6.152
   53DIO     H851956   8.120   0.464   5.897
   53DIO     H951957   8.156   0.099   5.869
   53DIO    H1051958   8.296   0.123   5.766
   53DIO    H1151959   8.355   0.063   6.007
   53DIO    H1251960   8.312   0.245   6.178
   53DIO    H1351961   8.165   0.171   6.116
   53DIO    H1451962   8.445   0.347   5.934
   53DIO    H1551963   8.521   0.240   6.049
   53DIO    H1651964   8.508   0.201   5.746
   53DIO    H1751965   8.647   0.248   5.842
   53DIO    H1851966   8.638   0.024   5.961
   53DIO    H1951967   8.507  -0.025   5.850
   53DIO    H2051968   8.668   0.012   5.786
   54DIO     F151969   0.029   5.957   3.329
   54DIO     C151970   0.107   5.852   3.362
   54DIO     C251971   0.251   5.863   3.349
   54DIO     C351972   0.340   5.750   3.382
   54DIO     C451973   0.274   5.625   3.429
   54DIO     C551974   0.130   5.617   3.441
   54DIO     F251975   0.074   5.504   3.489
   54DIO     C651976   0.046   5.729   3.408
   54DIO     F351977  -0.088   5.720   3.418
   54DIO     C751978   0.486   5.759   3.368
   54DIO     C851979   0.563   5.656   3.295
   54DIO     C951980   0.708   5.665   3.283
   54DIO    C1051981   0.780   5.770   3.351
   54DIO    C1151982   0.708   5.877   3.418
   54DIO    C1251983   0.564   5.869   3.428
   54DIO     F451984   0.499   5.967   3.495
   54DIO     O151985   0.913   5.786   3.315
   54DIO    C1351986   1.007   5.827   3.409
   54DIO     O251987   1.008   5.828   3.535
   54DIO    C1451988   1.136   5.861   3.348
   54DIO    C1551989   1.202   5.770   3.251
   54DIO     F551990   1.140   5.658   3.210
   54DIO    C1651991   1.333   5.798   3.195
   54DIO    C1751992   1.409   5.915   3.238
   54DIO    C1851993   1.340   6.014   3.320
   54DIO    C1951994   1.209   5.987   3.375
   54DIO     F651995   1.146   6.089   3.438
   54DIO    C2051996   1.550   5.940   3.189
   54DIO     O351997   1.619   5.820   3.151
   54DIO    C2151998   1.663   5.745   3.264
   54DIO    C2251999   1.752   5.829   3.355
   54DIO    C2352000   1.671   5.953   3.393
   54DIO     O452001   1.627   6.022   3.277
   54DIO    C2452002   1.885   5.871   3.288
   54DIO    C2552003   1.975   5.756   3.242
   54DIO    C2652004   2.014   5.659   3.352
   54DIO     H152005   0.293   5.957   3.315
   54DIO     H252006   0.335   5.542   3.464
   54DIO     H352007   0.512   5.575   3.245
   54DIO     H452008   0.763   5.594   3.222
   54DIO     H552009   0.762   5.958   3.464
   54DIO     H652010   1.371   5.732   3.118
   54DIO     H752011   1.383   6.112   3.336
   54DIO     H852012   1.540   5.998   3.096
   54DIO     H952013   1.576   5.707   3.319
   54DIO    H1052014   1.716   5.657   3.226
   54DIO    H1152015   1.775   5.772   3.446
   54DIO    H1252016   1.732   6.022   3.452
   54DIO    H1352017   1.585   5.926   3.456
   54DIO    H1452018   1.865   5.935   3.202
   54DIO    H1552019   1.941   5.932   3.360
   54DIO    H1652020   1.928   5.701   3.160
   54DIO    H1752021   2.067   5.800   3.200
   54DIO    H1852022   2.058   5.712   3.438
   54DIO    H1952023   1.927   5.602   3.388
   54DIO    H2052024   2.088   5.587   3.315
   55DIO     F152025   6.198   7.472   7.290
   55DIO     C152026   6.276   7.529   7.385
   55DIO     C252027   6.420   7.514   7.377
   55DIO     C352028   6.509   7.573   7.479
   55DIO     C452029   6.443   7.649   7.588
   55DIO     C552030   6.299   7.662   7.594
   55DIO     F252031   6.244   7.736   7.692
   55DIO     C652032   6.215   7.603   7.493
   55DIO     F352033   6.082   7.615   7.500
   55DIO     C752034   6.655   7.558   7.473
   55DIO     C852035   6.732   7.511   7.591
   55DIO     C952036   6.877   7.497   7.585
   55DIO    C1052037   6.950   7.538   7.467
   55DIO    C1152038   6.877   7.577   7.347
   55DIO    C1252039   6.733   7.589   7.352
   55DIO     F452040   6.668   7.630   7.241
   55DIO     O152041   7.082   7.500   7.460
   55DIO    C1352042   7.176   7.581   7.397
   55DIO     O252043   7.177   7.703   7.366
   55DIO    C1452044   7.306   7.513   7.379
   55DIO    C1552045   7.372   7.441   7.490
   55DIO     F552046   7.309   7.427   7.609
   55DIO    C1652047   7.503   7.380   7.477
   55DIO    C1752048   7.578   7.394   7.353
   55DIO    C1852049   7.510   7.449   7.237
   55DIO    C1952050   7.378   7.509   7.250
   55DIO     F652051   7.316   7.546   7.136
   55DIO    C2052052   7.719   7.340   7.341
   55DIO     O352053   7.789   7.332   7.466
   55DIO    C2152054   7.833   7.459   7.512
   55DIO    C2252055   7.921   7.528   7.409
   55DIO    C2352056   7.841   7.535   7.279
   55DIO     O452057   7.796   7.406   7.240
   55DIO    C2452058   8.054   7.453   7.384
   55DIO    C2552059   8.145   7.435   7.506
   55DIO    C2652060   8.183   7.566   7.574
   55DIO     H152061   6.463   7.458   7.294
   55DIO     H252062   6.504   7.702   7.661
   55DIO     H352063   6.681   7.482   7.681
   55DIO     H452064   6.932   7.455   7.668
   55DIO     H552065   6.932   7.603   7.257
   55DIO     H652066   7.541   7.321   7.559
   55DIO     H752067   7.553   7.442   7.138
   55DIO     H852068   7.709   7.236   7.307
   55DIO     H952069   7.746   7.522   7.536
   55DIO    H1052070   7.885   7.444   7.607
   55DIO    H1152071   7.944   7.630   7.442
   55DIO    H1252072   7.902   7.576   7.198
   55DIO    H1352073   7.755   7.602   7.291
   55DIO    H1452074   8.034   7.353   7.342
   55DIO    H1552075   8.111   7.507   7.307
   55DIO    H1652076   8.098   7.369   7.579
   55DIO    H1752077   8.237   7.384   7.474
   55DIO    H1852078   8.227   7.636   7.502
   55DIO    H1952079   8.097   7.614   7.621
   55DIO    H2052080   8.257   7.547   7.652
   56DIO     F152081   7.029  10.863   9.562
   56DIO     C152082   7.107  10.754   9.546
   56DIO     C252083   7.251  10.769   9.540
   56DIO     C352084   7.339  10.653   9.520
   56DIO     C452085   7.274  10.520   9.509
   56DIO     C552086   7.130  10.507   9.516
   56DIO     F252087   7.074  10.384   9.510
   56DIO     C652088   7.046  10.623   9.535
   56DIO     F352089   6.912  10.610   9.540
   56DIO     C752090   7.486  10.667   9.512
   56DIO     C852091   7.563  10.605   9.401
   56DIO     C952092   7.708  10.619   9.394
   56DIO    C1052093   7.780  10.684   9.501
   56DIO    C1152094   7.708  10.752   9.607
   56DIO    C1252095   7.564  10.741   9.613
   56DIO     F452096   7.499  10.800   9.716
   56DIO     O152097   7.912  10.714   9.476
   56DIO    C1352098   8.007  10.711   9.578
   56DIO     O252099   8.008  10.657   9.692
   56DIO    C1452100   8.136  10.767   9.537
   56DIO    C1552101   8.202  10.727   9.411
   56DIO     F552102   8.140  10.644   9.325
   56DIO    C1652103   8.333  10.777   9.372
   56DIO    C1752104   8.409  10.864   9.462
   56DIO    C1852105   8.340  10.918   9.578
   56DIO    C1952106   8.209  10.870   9.616
   56DIO     F652107   8.146  10.935   9.717
   56DIO    C2052108   8.550  10.907   9.428
   56DIO     O352109   8.619  10.816   9.343
   56DIO    C2152110   8.663  10.699   9.411
   56DIO    C2252111   8.752  10.735   9.530
   56DIO    C2352112   8.671  10.831   9.618
   56DIO     O452113   8.627  10.944   9.543
   56DIO    C2452114   8.885  10.802   9.488
   56DIO    C2552115   8.975  10.719   9.397
   56DIO    C2652116   9.014  10.584   9.455
   56DIO     H152117   7.293  10.869   9.549
   56DIO     H252118   7.335  10.430   9.505
   56DIO     H352119   7.511  10.554   9.321
   56DIO     H452120   7.763  10.581   9.309
   56DIO     H552121   7.762  10.805   9.684
   56DIO     H652122   8.371  10.751   9.274
   56DIO     H752123   8.383  10.999   9.635
   56DIO     H852124   8.540  10.999   9.369
   56DIO     H952125   8.576  10.641   9.445
   56DIO    H1052126   8.716  10.636   9.340
   56DIO    H1152127   8.774  10.645   9.588
   56DIO    H1252128   8.732  10.868   9.701
   56DIO    H1352129   8.585  10.780   9.662
   56DIO    H1452130   8.865  10.898   9.437
   56DIO    H1552131   8.941  10.827   9.579
   56DIO    H1652132   8.928  10.705   9.299
   56DIO    H1752133   9.067  10.776   9.378
   56DIO    H1852134   9.058  10.595   9.554
   56DIO    H1952135   8.927  10.517   9.462
   56DIO    H2052136   9.087  10.535   9.390
   57DIO     F152137   3.561   9.269   3.018
   57DIO     C152138   3.639   9.367   3.068
   57DIO     C252139   3.783   9.350   3.069
   57DIO     C352140   3.872   9.454   3.126
   57DIO     C452141   3.806   9.576   3.179
   57DIO     C552142   3.662   9.590   3.177
   57DIO     F252143   3.607   9.704   3.222
   57DIO     C652144   3.578   9.487   3.121
   57DIO     F352145   3.445   9.501   3.121
   57DIO     C752146   4.018   9.438   3.129
   57DIO     C852147   4.095   9.460   3.253
   57DIO     C952148   4.240   9.445   3.256
   57DIO    C1052149   4.313   9.418   3.133
   57DIO    C1152150   4.240   9.388   3.011
   57DIO    C1252151   4.096   9.401   3.009
   57DIO     F452152   4.031   9.378   2.893
   57DIO     O152153   4.445   9.381   3.147
   57DIO    C1352154   4.539   9.418   3.052
   57DIO     O252155   4.540   9.505   2.961
   57DIO    C1452156   4.669   9.351   3.072
   57DIO    C1552157   4.735   9.348   3.204
   57DIO     F552158   4.672   9.398   3.312
   57DIO    C1652159   4.866   9.288   3.225
   57DIO    C1752160   4.941   9.235   3.112
   57DIO    C1852161   4.873   9.222   2.984
   57DIO    C1952162   4.741   9.280   2.964
   57DIO     F652163   4.679   9.251   2.848
   57DIO    C2052164   5.082   9.183   3.130
   57DIO     O352165   5.152   9.242   3.240
   57DIO    C2152166   5.196   9.375   3.213
   57DIO    C2252167   5.284   9.379   3.089
   57DIO    C2352168   5.204   9.317   2.975
   57DIO     O452169   5.159   9.186   3.009
   57DIO    C2452170   5.417   9.302   3.107
   57DIO    C2552171   5.508   9.351   3.221
   57DIO    C2652172   5.546   9.497   3.210
   57DIO     H152173   3.826   9.259   3.027
   57DIO     H252174   3.867   9.659   3.212
   57DIO     H352175   4.044   9.482   3.346
   57DIO     H452176   4.295   9.452   3.349
   57DIO     H552177   4.295   9.363   2.921
   57DIO     H652178   4.904   9.281   3.326
   57DIO     H752179   4.916   9.164   2.903
   57DIO     H852180   5.072   9.077   3.155
   57DIO     H952181   5.109   9.440   3.200
   57DIO    H1052182   5.248   9.411   3.302
   57DIO    H1152183   5.307   9.483   3.064
   57DIO    H1252184   5.265   9.309   2.884
   57DIO    H1352185   5.118   9.380   2.950
   57DIO    H1452186   5.397   9.195   3.124
   57DIO    H1552187   5.474   9.308   3.013
   57DIO    H1652188   5.461   9.332   3.318
   57DIO    H1752189   5.600   9.291   3.220
   57DIO    H1852190   5.590   9.520   3.112
   57DIO    H1952191   5.460   9.563   3.225
   57DIO    H2052192   5.620   9.523   3.287
   58DIO     F152193   4.106   7.627   0.087
   58DIO     C152194   4.184   7.713   0.020
   58DIO     C252195   4.328   7.707   0.035
   58DIO     C352196   4.416   7.802  -0.035
   58DIO     C452197   4.351   7.901  -0.124
   58DIO     C552198   4.207   7.905  -0.138
   58DIO     F252199   4.151   7.994  -0.223
   58DIO     C652200   4.123   7.812  -0.067
   58DIO     F352201   3.989   7.817  -0.080
   58DIO     C752202   4.563   7.798  -0.020
   58DIO     C852203   4.640   7.920   0.012
   58DIO     C952204   4.785   7.917   0.027
   58DIO    C1052205   4.857   7.794   0.000
   58DIO    C1152206   4.785   7.670  -0.024
   58DIO    C1252207   4.641   7.674  -0.036
   58DIO     F452208   4.576   7.559  -0.064
   58DIO     O152209   4.989   7.791   0.040
   58DIO    C1352210   5.084   7.720  -0.033
   58DIO     O252211   5.085   7.674  -0.151
   58DIO    C1452212   5.213   7.710   0.036
   58DIO    C1552213   5.279   7.829   0.094
   58DIO     F552214   5.217   7.948   0.093
   58DIO    C1652215   5.410   7.823   0.156
   58DIO    C1752216   5.486   7.698   0.158
   58DIO    C1852217   5.417   7.576   0.116
   58DIO    C1952218   5.286   7.583   0.055
   58DIO     F652219   5.223   7.465   0.033
   58DIO    C2052220   5.627   7.693   0.212
   58DIO     O352221   5.696   7.817   0.205
   58DIO    C2152222   5.740   7.848   0.073
   58DIO    C2252223   5.829   7.738   0.018
   58DIO    C2352224   5.748   7.608   0.026
   58DIO     O452225   5.704   7.584   0.159
   58DIO    C2452226   5.962   7.722   0.095
   58DIO    C2552227   6.052   7.845   0.098
   58DIO    C2652228   6.091   7.897  -0.040
   58DIO     H152229   4.370   7.632   0.100
   58DIO     H252230   4.412   7.967  -0.186
   58DIO     H352231   4.588   8.014   0.030
   58DIO     H452232   4.840   8.004   0.059
   58DIO     H552233   4.839   7.578  -0.038
   58DIO     H652234   5.448   7.912   0.205
   58DIO     H752235   5.460   7.479   0.136
   58DIO     H852236   5.617   7.671   0.319
   58DIO     H952237   5.653   7.864   0.008
   58DIO    H1052238   5.793   7.944   0.077
   58DIO    H1152239   5.851   7.758  -0.088
   58DIO    H1252240   5.809   7.522  -0.005
   58DIO    H1352241   5.662   7.611  -0.042
   58DIO    H1452242   5.942   7.692   0.199
   58DIO    H1552243   6.018   7.639   0.050
   58DIO    H1652244   6.005   7.926   0.155
   58DIO    H1752245   6.144   7.819   0.152
   58DIO    H1852246   6.135   7.817  -0.101
   58DIO    H1952247   6.004   7.937  -0.093
   58DIO    H2052248   6.164   7.977  -0.031
   59DIO     F152249   4.679   4.944   7.858
   59DIO     C152250   4.756   5.051   7.832
   59DIO     C252251   4.900   5.039   7.843
   59DIO     C352252   4.989   5.154   7.817
   59DIO     C452253   4.924   5.281   7.776
   59DIO     C552254   4.779   5.290   7.765
   59DIO     F252255   4.724   5.406   7.723
   59DIO     C652256   4.696   5.176   7.792
   59DIO     F352257   4.562   5.186   7.782
   59DIO     C752258   5.135   5.144   7.830
   59DIO     C852259   5.213   5.243   7.909
   59DIO     C952260   5.357   5.234   7.921
   59DIO    C1052261   5.430   5.132   7.847
   59DIO    C1152262   5.357   5.029   7.774
   59DIO    C1252263   5.213   5.037   7.765
   59DIO     F452264   5.148   4.943   7.692
   59DIO     O152265   5.562   5.114   7.881
   59DIO    C1352266   5.657   5.078   7.786
   59DIO     O252267   5.657   5.084   7.660
   59DIO    C1452268   5.786   5.041   7.845
   59DIO    C1552269   5.852   5.126   7.946
   59DIO     F552270   5.789   5.236   7.994
   59DIO    C1652271   5.983   5.095   8.001
   59DIO    C1752272   6.059   4.981   7.952
   59DIO    C1852273   5.990   4.886   7.865
   59DIO    C1952274   5.858   4.917   7.811
   59DIO     F652275   5.796   4.818   7.743
   59DIO    C2052276   6.199   4.954   7.999
   59DIO     O352277   6.269   5.071   8.043
   59DIO    C2152278   6.313   5.153   7.935
   59DIO    C2252279   6.402   5.074   7.839
   59DIO    C2352280   6.321   4.952   7.795
   59DIO     O452281   6.277   4.876   7.907
   59DIO    C2452282   6.534   5.028   7.904
   59DIO    C2552283   6.625   5.140   7.956
   59DIO    C2652284   6.663   5.243   7.851
   59DIO     H152285   4.943   4.943   7.872
   59DIO     H252286   4.984   5.365   7.746
   59DIO     H352287   5.161   5.321   7.963
   59DIO     H452288   5.412   5.301   7.985
   59DIO     H552289   5.412   4.950   7.724
   59DIO     H652290   6.021   5.157   8.081
   59DIO     H752291   6.033   4.789   7.843
   59DIO     H852292   6.190   4.891   8.089
   59DIO     H952293   6.226   5.193   7.882
   59DIO    H1052294   6.365   5.238   7.977
   59DIO    H1152295   6.424   5.135   7.752
   59DIO    H1252296   6.382   4.886   7.732
   59DIO    H1352297   6.235   4.982   7.734
   59DIO    H1452298   6.514   4.959   7.987
   59DIO    H1552299   6.591   4.971   7.829
   59DIO    H1652300   6.578   5.190   8.041
   59DIO    H1752301   6.717   5.094   7.996
   59DIO    H1852302   6.707   5.195   7.763
   59DIO    H1952303   6.577   5.301   7.819
   59DIO    H2052304   6.737   5.312   7.892
   60DIO     F152305   4.169  10.644   9.012
   60DIO     C152306   4.247  10.686   8.910
   60DIO     C252307   4.391  10.689   8.927
   60DIO     C352308   4.480  10.737   8.819
   60DIO     C452309   4.414  10.780   8.693
   60DIO     C552310   4.270  10.777   8.679
   60DIO     F252311   4.215  10.812   8.561
   60DIO     C652312   4.186  10.730   8.786
   60DIO     F352313   4.053  10.728   8.772
   60DIO     C752314   4.626  10.741   8.834
   60DIO     C852315   4.703  10.863   8.803
   60DIO     C952316   4.848  10.867   8.817
   60DIO    C1052317   4.921  10.747   8.854
   60DIO    C1152318   4.848  10.628   8.893
   60DIO    C1252319   4.704  10.624   8.881
   60DIO     F452320   4.639  10.511   8.913
   60DIO     O152321   5.053  10.764   8.889
   60DIO    C1352322   5.147  10.666   8.861
   60DIO     O252323   5.148  10.569   8.781
   60DIO    C1452324   5.277  10.691   8.926
   60DIO    C1552325   5.343  10.823   8.918
   60DIO     F552326   5.280  10.927   8.859
   60DIO    C1652327   5.474  10.849   8.976
   60DIO    C1752328   5.549  10.741   9.038
   60DIO    C1852329   5.481  10.614   9.062
   60DIO    C1952330   5.349  10.590   9.005
   60DIO     F652331   5.287  10.476   9.043
   60DIO    C2052332   5.690  10.763   9.088
   60DIO     O352333   5.760  10.868   9.021
   60DIO    C2152334   5.804  10.830   8.891
   60DIO    C2252335   5.892  10.706   8.897
   60DIO    C2352336   5.812  10.598   8.967
   60DIO     O452337   5.767  10.642   9.095
   60DIO    C2452338   6.025  10.731   8.972
   60DIO    C2552339   6.116  10.840   8.914
   60DIO    C2652340   6.154  10.817   8.768
   60DIO     H152341   4.434  10.655   9.021
   60DIO     H252342   4.475  10.807   8.607
   60DIO     H352343   4.652  10.954   8.773
   60DIO     H452344   4.903  10.959   8.802
   60DIO     H552345   4.903  10.540   8.926
   60DIO     H652346   5.512  10.950   8.975
   60DIO     H752347   5.524  10.539   9.126
   60DIO     H852348   5.680  10.796   9.192
   60DIO     H952349   5.717  10.812   8.826
   60DIO    H1052350   5.856  10.916   8.847
   60DIO    H1152351   5.915  10.673   8.795
   60DIO    H1252352   5.873  10.508   8.982
   60DIO    H1352353   5.726  10.567   8.906
   60DIO    H1452354   6.005  10.756   9.077
   60DIO    H1552355   6.082  10.637   8.973
   60DIO    H1652356   6.069  10.938   8.924
   60DIO    H1752357   6.208  10.844   8.974
   60DIO    H1852358   6.198  10.718   8.754
   60DIO    H1952359   6.068  10.827   8.702
   60DIO    H2052360   6.228  10.892   8.737
   61DIO     F152361   7.644  -0.772   8.461
   61DIO     C152362   7.722  -0.748   8.568
   61DIO     C252363   7.866  -0.759   8.556
   61DIO     C352364   7.955  -0.736   8.672
   61DIO     C452365   7.889  -0.699   8.800
   61DIO     C552366   7.745  -0.688   8.809
   61DIO     F252367   7.689  -0.649   8.926
   61DIO     C652368   7.661  -0.712   8.694
   61DIO     F352369   7.527  -0.702   8.705
   61DIO     C752370   8.101  -0.749   8.662
   61DIO     C852371   8.178  -0.830   8.758
   61DIO     C952372   8.323  -0.842   8.749
   61DIO    C1052373   8.395  -0.765   8.649
   61DIO    C1152374   8.323  -0.690   8.548
   61DIO    C1252375   8.179  -0.680   8.557
   61DIO     F452376   8.114  -0.606   8.465
   61DIO     O152377   8.528  -0.799   8.630
   61DIO    C1352378   8.622  -0.703   8.597
   61DIO     O252379   8.623  -0.577   8.606
   61DIO    C1452380   8.751  -0.761   8.559
   61DIO    C1552381   8.818  -0.865   8.641
   61DIO     F552382   8.755  -0.915   8.749
   61DIO    C1652383   8.948  -0.918   8.609
   61DIO    C1752384   9.024  -0.866   8.495
   61DIO    C1852385   8.955  -0.776   8.403
   61DIO    C1952386   8.824  -0.724   8.435
   61DIO     F652387   8.761  -0.653   8.339
   61DIO    C2052388   9.165  -0.913   8.467
   61DIO     O352389   9.235  -0.960   8.583
   61DIO    C2152390   9.278  -0.854   8.667
   61DIO    C2252391   9.367  -0.756   8.591
   61DIO    C2352392   9.286  -0.708   8.471
   61DIO     O452393   9.242  -0.818   8.392
   61DIO    C2452394   9.500  -0.820   8.544
   61DIO    C2552395   9.591  -0.875   8.654
   61DIO    C2652396   9.629  -0.773   8.760
   61DIO     H152397   7.908  -0.786   8.460
   61DIO     H252398   7.950  -0.671   8.885
   61DIO     H352399   8.127  -0.887   8.835
   61DIO     H452400   8.378  -0.908   8.814
   61DIO     H552401   8.377  -0.637   8.471
   61DIO     H652402   8.986  -1.001   8.668
   61DIO     H752403   8.998  -0.752   8.307
   61DIO     H852404   9.155  -1.001   8.402
   61DIO     H952405   9.192  -0.802   8.710
   61DIO    H1052406   9.331  -0.899   8.752
   61DIO    H1152407   9.390  -0.670   8.655
   61DIO    H1252408   9.347  -0.644   8.407
   61DIO    H1352409   9.200  -0.648   8.503
   61DIO    H1452410   9.480  -0.901   8.472
   61DIO    H1552411   9.556  -0.743   8.488
   61DIO    H1652412   9.543  -0.961   8.702
   61DIO    H1752413   9.682  -0.913   8.607
   61DIO    H1852414   9.673  -0.684   8.714
   61DIO    H1952415   9.542  -0.742   8.819
   61DIO    H2052416   9.703  -0.816   8.828
   62DIO     F152417   1.810   3.895   7.815
   62DIO     C152418   1.888   3.877   7.706
   62DIO     C252419   2.032   3.888   7.719
   62DIO     C352420   2.121   3.871   7.602
   62DIO     C452421   2.055   3.841   7.472
   62DIO     C552422   1.911   3.831   7.462
   62DIO     F252423   1.855   3.799   7.343
   62DIO     C652424   1.827   3.848   7.578
   62DIO     F352425   1.693   3.839   7.567
   62DIO     C752426   2.267   3.883   7.613
   62DIO     C852427   2.344   3.970   7.521
   62DIO     C952428   2.489   3.981   7.532
   62DIO    C1052429   2.561   3.899   7.626
   62DIO    C1152430   2.489   3.818   7.723
   62DIO    C1252431   2.345   3.809   7.714
   62DIO     F452432   2.280   3.729   7.801
   62DIO     O152433   2.694   3.932   7.647
   62DIO    C1352434   2.788   3.834   7.675
   62DIO     O252435   2.789   3.709   7.659
   62DIO    C1452436   2.917   3.889   7.717
   62DIO    C1552437   2.984   3.998   7.641
   62DIO     F552438   2.921   4.054   7.535
   62DIO    C1652439   3.114   4.050   7.676
   62DIO    C1752440   3.190   3.991   7.786
   62DIO    C1852441   3.121   3.896   7.873
   62DIO    C1952442   2.990   3.845   7.838
   62DIO     F652443   2.927   3.769   7.930
   62DIO    C2052444   3.331   4.036   7.817
   62DIO     O352445   3.401   4.090   7.704
   62DIO    C2152446   3.444   3.989   7.614
   62DIO    C2252447   3.533   3.887   7.684
   62DIO    C2352448   3.452   3.832   7.801
   62DIO     O452449   3.408   3.937   7.886
   62DIO    C2452450   3.666   3.947   7.735
   62DIO    C2552451   3.757   4.009   7.628
   62DIO    C2652452   3.795   3.913   7.517
   62DIO     H152453   2.074   3.908   7.817
   62DIO     H252454   2.116   3.819   7.385
   62DIO     H352455   2.293   4.031   7.448
   62DIO     H452456   2.544   4.051   7.470
   62DIO     H552457   2.543   3.761   7.797
   62DIO     H652458   3.152   4.135   7.621
   62DIO     H752459   3.164   3.866   7.968
   62DIO     H852460   3.321   4.120   7.887
   62DIO     H952461   3.358   3.939   7.568
   62DIO    H1052462   3.497   4.038   7.531
   62DIO    H1152463   3.556   3.805   7.615
   62DIO    H1252464   3.513   3.764   7.862
   62DIO    H1352465   3.366   3.774   7.766
   62DIO    H1452466   3.646   4.024   7.811
   62DIO    H1552467   3.722   3.868   7.786
   62DIO    H1652468   3.709   4.098   7.585
   62DIO    H1752469   3.848   4.044   7.677
   62DIO    H1852470   3.839   3.821   7.557
   62DIO    H1952471   3.708   3.886   7.455
   62DIO    H2052472   3.869   3.960   7.451
   63DIO     F152473   0.139   9.358   5.904
   63DIO     C152474   0.217   9.467   5.922
   63DIO     C252475   0.361   9.451   5.928
   63DIO     C352476   0.450   9.567   5.951
   63DIO     C452477   0.384   9.700   5.964
   63DIO     C552478   0.240   9.713   5.957
   63DIO     F252479   0.185   9.835   5.966
   63DIO     C652480   0.156   9.597   5.936
   63DIO     F352481   0.023   9.611   5.931
   63DIO     C752482   0.596   9.553   5.958
   63DIO     C852483   0.673   9.612   6.070
   63DIO     C952484   0.818   9.598   6.077
   63DIO    C1052485   0.891   9.535   5.969
   63DIO    C1152486   0.818   9.470   5.861
   63DIO    C1252487   0.674   9.481   5.855
   63DIO     F452488   0.609   9.425   5.751
   63DIO     O152489   1.023   9.505   5.993
   63DIO    C1352490   1.117   9.510   5.891
   63DIO     O252491   1.118   9.566   5.778
   63DIO    C1452492   1.246   9.453   5.930
   63DIO    C1552493   1.313   9.490   6.057
   63DIO     F552494   1.250   9.571   6.145
   63DIO    C1652495   1.444   9.440   6.095
   63DIO    C1752496   1.519   9.355   6.004
   63DIO    C1852497   1.451   9.303   5.886
   63DIO    C1952498   1.319   9.353   5.849
   63DIO     F652499   1.256   9.290   5.747
   63DIO    C2052500   1.660   9.311   6.036
   63DIO     O352501   1.730   9.400   6.124
   63DIO    C2152502   1.773   9.518   6.058
   63DIO    C2252503   1.862   9.485   5.938
   63DIO    C2352504   1.782   9.391   5.848
   63DIO     O452505   1.737   9.277   5.921
   63DIO    C2452506   1.995   9.417   5.979
   63DIO    C2552507   2.086   9.498   6.072
   63DIO    C2652508   2.124   9.635   6.017
   63DIO     H152509   0.404   9.352   5.916
   63DIO     H252510   0.445   9.789   5.971
   63DIO     H352511   0.622   9.661   6.151
   63DIO     H452512   0.873   9.634   6.163
   63DIO     H552513   0.873   9.419   5.783
   63DIO     H652514   1.482   9.464   6.194
   63DIO     H752515   1.493   9.223   5.827
   63DIO     H852516   1.650   9.217   6.093
   63DIO     H952517   1.687   9.577   6.026
   63DIO    H1052518   1.826   9.580   6.131
   63DIO    H1152519   1.885   9.576   5.883
   63DIO    H1252520   1.843   9.356   5.765
   63DIO    H1352521   1.695   9.444   5.805
   63DIO    H1452522   1.975   9.320   6.027
   63DIO    H1552523   2.052   9.394   5.888
   63DIO    H1652524   2.038   9.510   6.170
   63DIO    H1752525   2.178   9.440   6.090
   63DIO    H1852526   2.168   9.626   5.917
   63DIO    H1952527   2.038   9.701   6.012
   63DIO    H2052528   2.198   9.682   6.083
   64DIO     F152529   3.489  10.449   6.383
   64DIO     C152530   3.566  10.339   6.376
   64DIO     C252531   3.710  10.354   6.368
   64DIO     C352532   3.799  10.236   6.358
   64DIO     C452533   3.734  10.103   6.359
   64DIO     C552534   3.589  10.091   6.367
   64DIO     F252535   3.534   9.968   6.371
   64DIO     C652536   3.506  10.208   6.376
   64DIO     F352537   3.372  10.195   6.382
   64DIO     C752538   3.945  10.249   6.349
   64DIO     C852539   4.023  10.179   6.244
   64DIO     C952540   4.167  10.192   6.236
   64DIO    C1052541   4.240  10.266   6.337
   64DIO    C1152542   4.167  10.342   6.437
   64DIO    C1252543   4.023  10.332   6.444
   64DIO     F452544   3.958  10.399   6.541
   64DIO     O152545   4.372  10.294   6.309
   64DIO    C1352546   4.467  10.299   6.412
   64DIO     O252547   4.467  10.255   6.530
   64DIO    C1452548   4.596  10.352   6.366
   64DIO    C1552549   4.662  10.302   6.244
   64DIO     F552550   4.599  10.212   6.165
   64DIO    C1652551   4.793  10.348   6.201
   64DIO    C1752552   4.869  10.442   6.283
   64DIO    C1852553   4.800  10.506   6.394
   64DIO    C1952554   4.668  10.460   6.436
   64DIO     F652555   4.606  10.534   6.531
   64DIO    C2052556   5.009  10.482   6.246
   64DIO     O352557   5.079  10.384   6.168
   64DIO    C2152558   5.123  10.273   6.247
   64DIO    C2252559   5.212  10.319   6.362
   64DIO    C2352560   5.131  10.422   6.441
   64DIO     O452561   5.087  10.528   6.357
   64DIO    C2452562   5.344  10.382   6.314
   64DIO    C2552563   5.435  10.292   6.230
   64DIO    C2652564   5.473  10.162   6.299
   64DIO     H152565   3.753  10.454   6.370
   64DIO     H252566   3.794  10.013   6.362
   64DIO     H352567   3.971  10.121   6.169
   64DIO     H452568   4.222  10.147   6.154
   64DIO     H552569   4.222  10.402   6.509
   64DIO     H652570   4.831  10.313   6.106
   64DIO     H752571   4.843  10.591   6.445
   64DIO     H852572   5.000  10.569   6.179
   64DIO     H952573   5.036  10.218   6.285
   64DIO    H1052574   5.175  10.204   6.180
   64DIO    H1152575   5.234  10.234   6.427
   64DIO    H1252576   5.192  10.466   6.521
   64DIO    H1352577   5.045  10.374   6.490
   64DIO    H1452578   5.324  10.473   6.256
   64DIO    H1552579   5.401  10.415   6.402
   64DIO    H1652580   5.388  10.270   6.134
   64DIO    H1752581   5.527  10.348   6.207
   64DIO    H1852582   5.517  10.181   6.398
   64DIO    H1952583   5.387  10.096   6.312
   64DIO    H2052584   5.547  10.108   6.239
   65DIO     F152585   4.426  -0.263   8.321
   65DIO     C152586   4.503  -0.174   8.256
   65DIO     C252587   4.647  -0.181   8.271
   65DIO     C352588   4.736  -0.084   8.203
   65DIO     C452589   4.671   0.017   8.117
   65DIO     C552590   4.526   0.022   8.103
   65DIO     F252591   4.471   0.113   8.020
   65DIO     C652592   4.443  -0.074   8.171
   65DIO     F352593   4.309  -0.068   8.158
   65DIO     C752594   4.883  -0.088   8.218
   65DIO     C852595   4.960   0.033   8.254
   65DIO     C952596   5.104   0.029   8.268
   65DIO    C1052597   5.177  -0.093   8.238
   65DIO    C1152598   5.104  -0.216   8.211
   65DIO    C1252599   4.960  -0.212   8.199
   65DIO     F452600   4.895  -0.327   8.168
   65DIO     O152601   5.309  -0.097   8.277
   65DIO    C1352602   5.404  -0.166   8.203
   65DIO     O252603   5.405  -0.209   8.084
   65DIO    C1452604   5.533  -0.178   8.271
   65DIO    C1552605   5.599  -0.061   8.333
   65DIO     F552606   5.536   0.059   8.335
   65DIO    C1652607   5.730  -0.068   8.395
   65DIO    C1752608   5.806  -0.193   8.393
   65DIO    C1852609   5.737  -0.314   8.349
   65DIO    C1952610   5.605  -0.306   8.288
   65DIO     F652611   5.543  -0.423   8.262
   65DIO    C2052612   5.946  -0.200   8.448
   65DIO     O352613   6.016  -0.075   8.443
   65DIO    C2152614   6.060  -0.041   8.312
   65DIO    C2252615   6.149  -0.150   8.254
   65DIO    C2352616   6.068  -0.280   8.259
   65DIO     O452617   6.024  -0.307   8.392
   65DIO    C2452618   6.281  -0.168   8.331
   65DIO    C2552619   6.372  -0.044   8.337
   65DIO    C2652620   6.411   0.011   8.201
   65DIO     H152621   4.690  -0.258   8.334
   65DIO     H252622   4.731   0.084   8.057
   65DIO     H352623   4.908   0.126   8.274
   65DIO     H452624   5.159   0.115   8.302
   65DIO     H552625   5.159  -0.308   8.194
   65DIO     H652626   5.768   0.019   8.446
   65DIO     H752627   5.780  -0.412   8.365
   65DIO     H852628   5.937  -0.224   8.554
   65DIO     H952629   5.973  -0.023   8.248
   65DIO    H1052630   6.113   0.055   8.319
   65DIO    H1152631   6.171  -0.127   8.149
   65DIO    H1252632   6.129  -0.364   8.226
   65DIO    H1352633   5.982  -0.275   8.191
   65DIO    H1452634   6.262  -0.200   8.434
   65DIO    H1552635   6.338  -0.249   8.284
   65DIO    H1652636   6.325   0.035   8.396
   65DIO    H1752637   6.464  -0.072   8.391
   65DIO    H1852638   6.454  -0.067   8.138
   65DIO    H1952639   6.324   0.053   8.149
   65DIO    H2052640   6.484   0.091   8.212
   66DIO     F152641   3.133   5.472   5.247
   66DIO     C152642   3.210   5.555   5.176
   66DIO     C252643   3.354   5.550   5.192
   66DIO     C352644   3.443   5.641   5.117
   66DIO     C452645   3.378   5.736   5.024
   66DIO     C552646   3.233   5.740   5.010
   66DIO     F252647   3.178   5.825   4.921
   66DIO     C652648   3.150   5.649   5.085
   66DIO     F352649   3.016   5.654   5.072
   66DIO     C752650   3.590   5.638   5.133
   66DIO     C852651   3.667   5.762   5.159
   66DIO     C952652   3.811   5.758   5.174
   66DIO    C1052653   3.884   5.635   5.153
   66DIO    C1152654   3.812   5.510   5.134
   66DIO    C1252655   3.667   5.513   5.122
   66DIO     F452656   3.603   5.397   5.099
   66DIO     O152657   4.016   5.634   5.192
   66DIO    C1352658   4.111   5.559   5.123
   66DIO     O252659   4.112   5.508   5.007
   66DIO    C1452660   4.240   5.553   5.192
   66DIO    C1552661   4.306   5.674   5.245
   66DIO     F552662   4.244   5.793   5.239
   66DIO    C1652663   4.437   5.671   5.308
   66DIO    C1752664   4.513   5.546   5.314
   66DIO    C1852665   4.444   5.423   5.279
   66DIO    C1952666   4.312   5.426   5.217
   66DIO     F652667   4.250   5.308   5.200
   66DIO    C2052668   4.653   5.543   5.369
   66DIO     O352669   4.723   5.667   5.356
   66DIO    C2152670   4.767   5.692   5.223
   66DIO    C2252671   4.856   5.579   5.173
   66DIO    C2352672   4.775   5.450   5.187
   66DIO     O452673   4.731   5.433   5.321
   66DIO    C2452674   4.989   5.567   5.251
   66DIO    C2552675   5.079   5.690   5.248
   66DIO    C2652676   5.118   5.736   5.108
   66DIO     H152677   3.397   5.477   5.260
   66DIO     H252678   3.438   5.799   4.959
   66DIO     H352679   3.615   5.856   5.173
   66DIO     H452680   3.867   5.847   5.202
   66DIO     H552681   3.866   5.417   5.124
   66DIO     H652682   4.475   5.762   5.352
   66DIO     H752683   4.487   5.326   5.302
   66DIO     H852684   4.644   5.527   5.477
   66DIO     H952685   4.680   5.705   5.158
   66DIO    H1052686   4.820   5.788   5.223
   66DIO    H1152687   4.878   5.595   5.067
   66DIO    H1252688   4.836   5.363   5.160
   66DIO    H1352689   4.689   5.450   5.119
   66DIO    H1452690   4.969   5.542   5.356
   66DIO    H1552691   5.045   5.482   5.210
   66DIO    H1652692   5.032   5.774   5.302
   66DIO    H1752693   5.171   5.667   5.303
   66DIO    H1852694   5.162   5.653   5.051
   66DIO    H1952695   5.031   5.774   5.053
   66DIO    H2052696   5.191   5.816   5.114
   67DIO     F152697   1.716   9.581   4.402
   67DIO     C152698   1.794   9.635   4.498
   67DIO     C252699   1.938   9.621   4.490
   67DIO     C352700   2.027   9.676   4.594
   67DIO     C452701   1.961   9.749   4.705
   67DIO     C552702   1.817   9.763   4.711
   67DIO     F252703   1.762   9.833   4.812
   67DIO     C652704   1.733   9.706   4.608
   67DIO     F352705   1.599   9.718   4.616
   67DIO     C752706   2.173   9.662   4.588
   67DIO     C852707   2.250   9.612   4.704
   67DIO     C952708   2.395   9.598   4.698
   67DIO    C1052709   2.468   9.642   4.581
   67DIO    C1152710   2.395   9.685   4.462
   67DIO    C1252711   2.251   9.696   4.467
   67DIO     F452712   2.186   9.741   4.358
   67DIO     O152713   2.600   9.604   4.572
   67DIO    C1352714   2.694   9.687   4.512
   67DIO     O252715   2.695   9.810   4.485
   67DIO    C1452716   2.823   9.620   4.493
   67DIO    C1552717   2.890   9.545   4.601
   67DIO     F552718   2.827   9.528   4.720
   67DIO    C1652719   3.020   9.484   4.586
   67DIO    C1752720   3.096   9.501   4.463
   67DIO    C1852721   3.027   9.560   4.348
   67DIO    C1952722   2.896   9.620   4.364
   67DIO     F652723   2.833   9.659   4.251
   67DIO    C2052724   3.237   9.448   4.449
   67DIO     O352725   3.307   9.437   4.574
   67DIO    C2152726   3.350   9.562   4.624
   67DIO    C2252727   3.439   9.634   4.522
   67DIO    C2352728   3.358   9.645   4.393
   67DIO     O452729   3.314   9.516   4.350
   67DIO    C2452730   3.572   9.559   4.495
   67DIO    C2552731   3.663   9.538   4.617
   67DIO    C2652732   3.701   9.667   4.688
   67DIO     H152733   1.981   9.568   4.405
   67DIO     H252734   2.022   9.801   4.779
   67DIO     H352735   2.199   9.580   4.793
   67DIO     H452736   2.450   9.553   4.780
   67DIO     H552737   2.449   9.713   4.373
   67DIO     H652738   3.059   9.422   4.667
   67DIO     H752739   3.070   9.555   4.249
   67DIO     H852740   3.227   9.345   4.412
   67DIO     H952741   3.264   9.624   4.649
   67DIO    H1052742   3.403   9.544   4.718
   67DIO    H1152743   3.462   9.735   4.558
   67DIO    H1252744   3.420   9.688   4.313
   67DIO    H1352745   3.272   9.711   4.406
   67DIO    H1452746   3.552   9.461   4.451
   67DIO    H1552747   3.628   9.616   4.420
   67DIO    H1652748   3.615   9.470   4.688
   67DIO    H1752749   3.754   9.488   4.583
   67DIO    H1852750   3.745   9.739   4.619
   67DIO    H1952751   3.615   9.714   4.737
   67DIO    H2052752   3.775   9.646   4.766
   68DIO     F152753   0.066  10.503  -0.602
   68DIO     C152754   0.144  10.600  -0.654
   68DIO     C252755   0.288  10.591  -0.639
   68DIO     C352756   0.377  10.697  -0.693
   68DIO     C452757   0.311  10.810  -0.763
   68DIO     C552758   0.167  10.816  -0.776
   68DIO     F252759   0.112  10.918  -0.845
   68DIO     C652760   0.083  10.712  -0.722
   68DIO     F352761  -0.051  10.720  -0.734
   68DIO     C752762   0.523  10.691  -0.678
   68DIO     C852763   0.600  10.805  -0.626
   68DIO     C952764   0.745  10.799  -0.612
   68DIO    C1052765   0.818  10.683  -0.659
   68DIO    C1152766   0.745  10.565  -0.704
   68DIO    C1252767   0.601  10.571  -0.715
   68DIO     F452768   0.536  10.462  -0.762
   68DIO     O152769   0.950  10.674  -0.621
   68DIO    C1352770   1.044  10.616  -0.705
   68DIO     O252771   1.045  10.591  -0.828
   68DIO    C1452772   1.173  10.594  -0.638
   68DIO    C1552773   1.240  10.702  -0.561
   68DIO     F552774   1.177  10.819  -0.541
   68DIO    C1652775   1.370  10.685  -0.500
   68DIO    C1752776   1.446  10.562  -0.520
   68DIO    C1852777   1.377  10.449  -0.582
   68DIO    C1952778   1.246  10.465  -0.641
   68DIO     F652779   1.183  10.353  -0.683
   68DIO    C2052780   1.587  10.547  -0.467
   68DIO     O352781   1.657  10.671  -0.453
   68DIO    C2152782   1.700  10.724  -0.578
   68DIO    C2252783   1.789  10.624  -0.652
   68DIO    C2352784   1.708  10.495  -0.665
   68DIO     O452785   1.664  10.449  -0.538
   68DIO    C2452786   1.922  10.596  -0.578
   68DIO    C2552787   2.013  10.717  -0.554
   68DIO    C2652788   2.051  10.791  -0.681
   68DIO     H152789   0.331  10.506  -0.588
   68DIO     H252790   0.372  10.885  -0.813
   68DIO     H352791   0.549  10.894  -0.592
   68DIO     H452792   0.800  10.880  -0.565
   68DIO     H552793   0.799  10.477  -0.734
   68DIO     H652794   1.409  10.764  -0.437
   68DIO     H752795   1.420  10.349  -0.579
   68DIO     H852796   1.577  10.508  -0.365
   68DIO     H952797   1.614  10.751  -0.639
   68DIO    H1052798   1.753  10.818  -0.558
   68DIO    H1152799   1.812  10.663  -0.752
   68DIO    H1252800   1.770  10.416  -0.710
   68DIO    H1352801   1.622  10.510  -0.732
   68DIO    H1452802   1.902  10.549  -0.481
   68DIO    H1552803   1.978  10.522  -0.636
   68DIO    H1652804   1.965  10.787  -0.484
   68DIO    H1752805   2.104  10.682  -0.505
   68DIO    H1852806   2.095  10.723  -0.755
   68DIO    H1952807   1.965  10.840  -0.727
   68DIO    H2052808   2.125  10.869  -0.658
   69DIO     F152809   5.467   9.815   2.100
   69DIO     C152810   5.545   9.711   2.135
   69DIO     C252811   5.689   9.722   2.122
   69DIO     C352812   5.778   9.609   2.156
   69DIO     C452813   5.712   9.485   2.206
   69DIO     C552814   5.568   9.477   2.218
   69DIO     F252815   5.512   9.364   2.267
   69DIO     C652816   5.484   9.589   2.183
   69DIO     F352817   5.350   9.579   2.193
   69DIO     C752818   5.924   9.618   2.143
   69DIO     C852819   6.001   9.514   2.071
   69DIO     C952820   6.146   9.522   2.058
   69DIO    C1052821   6.218   9.629   2.125
   69DIO    C1152822   6.146   9.736   2.190
   69DIO    C1252823   6.002   9.729   2.200
   69DIO     F452824   5.937   9.827   2.266
   69DIO     O152825   6.351   9.644   2.089
   69DIO    C1352826   6.445   9.687   2.182
   69DIO     O252827   6.446   9.689   2.308
   69DIO    C1452828   6.574   9.719   2.121
   69DIO    C1552829   6.640   9.627   2.025
   69DIO     F552830   6.578   9.515   1.985
   69DIO    C1652831   6.771   9.654   1.969
   69DIO    C1752832   6.847   9.772   2.010
   69DIO    C1852833   6.778   9.872   2.090
   69DIO    C1952834   6.647   9.846   2.146
   69DIO     F652835   6.584   9.949   2.207
   69DIO    C2052836   6.988   9.796   1.961
   69DIO     O352837   7.057   9.676   1.925
   69DIO    C2152838   7.101   9.602   2.038
   69DIO    C2252839   7.190   9.687   2.128
   69DIO    C2352840   7.109   9.812   2.165
   69DIO     O452841   7.065   9.879   2.047
   69DIO    C2452842   7.323   9.728   2.061
   69DIO    C2552843   7.413   9.613   2.016
   69DIO    C2652844   7.452   9.518   2.128
   69DIO     H152845   5.731   9.815   2.087
   69DIO     H252846   5.773   9.403   2.242
   69DIO     H352847   5.950   9.432   2.022
   69DIO     H452848   6.201   9.451   1.999
   69DIO     H552849   6.200   9.818   2.235
   69DIO     H652850   6.809   9.587   1.893
   69DIO     H752851   6.821   9.971   2.105
   69DIO     H852852   6.978   9.852   1.867
   69DIO     H952853   7.014   9.565   2.094
   69DIO    H1052854   7.154   9.513   2.002
   69DIO    H1152855   7.213   9.632   2.220
   69DIO    H1252856   7.170   9.882   2.222
   69DIO    H1352857   7.023   9.786   2.227
   69DIO    H1452858   7.303   9.792   1.973
   69DIO    H1552859   7.379   9.791   2.131
   69DIO    H1652860   7.366   9.557   1.935
   69DIO    H1752861   7.505   9.656   1.974
   69DIO    H1852862   7.496   9.572   2.213
   69DIO    H1952863   7.365   9.462   2.164
   69DIO    H2052864   7.526   9.446   2.092
   70DIO     F152865   8.795   9.589   4.606
   70DIO     C152866   8.873   9.523   4.518
   70DIO     C252867   9.017   9.539   4.524
   70DIO     C352868   9.106   9.471   4.427
   70DIO     C452869   9.040   9.385   4.326
   70DIO     C552870   8.896   9.371   4.321
   70DIO     F252871   8.840   9.289   4.230
   70DIO     C652872   8.812   9.440   4.417
   70DIO     F352873   8.678   9.427   4.411
   70DIO     C752874   9.252   9.486   4.432
   70DIO     C852875   9.329   9.522   4.310
   70DIO     C952876   9.474   9.537   4.315
   70DIO    C1052877   9.546   9.507   4.437
   70DIO    C1152878   9.474   9.479   4.559
   70DIO    C1252879   9.330   9.467   4.556
   70DIO     F452880   9.265   9.435   4.670
   70DIO     O152881   9.679   9.546   4.440
   70DIO    C1352882   9.773   9.471   4.510
   70DIO     O252883   9.774   9.352   4.552
   70DIO    C1452884   9.902   9.539   4.521
   70DIO    C1552885   9.969   9.601   4.404
   70DIO     F552886   9.906   9.604   4.285
   70DIO    C1652887  10.099   9.663   4.412
   70DIO    C1752888  10.175   9.661   4.537
   70DIO    C1852889  10.106   9.616   4.657
   70DIO    C1952890   9.975   9.555   4.649
   70DIO     F652891   9.912   9.529   4.766
   70DIO    C2052892  10.316   9.715   4.544
   70DIO     O352893  10.386   9.712   4.419
   70DIO    C2152894  10.429   9.581   4.384
   70DIO    C2252895  10.518   9.522   4.493
   70DIO    C2352896  10.437   9.526   4.623
   70DIO     O452897  10.393   9.659   4.651
   70DIO    C2452898  10.651   9.599   4.511
   70DIO    C2552899  10.742   9.605   4.388
   70DIO    C2652900  10.780   9.469   4.333
   70DIO     H152901   9.059   9.602   4.602
   70DIO     H252902   9.101   9.325   4.258
   70DIO     H352903   9.278   9.543   4.218
   70DIO     H452904   9.529   9.571   4.228
   70DIO     H552905   9.528   9.461   4.651
   70DIO     H652906  10.137   9.715   4.325
   70DIO     H752907  10.149   9.632   4.755
   70DIO     H852908  10.306   9.822   4.568
   70DIO     H952909  10.343   9.516   4.366
   70DIO    H1052910  10.482   9.587   4.289
   70DIO    H1152911  10.541   9.418   4.470
   70DIO    H1252912  10.498   9.494   4.708
   70DIO    H1352913  10.351   9.459   4.618
   70DIO    H1452914  10.631   9.702   4.544
   70DIO    H1552915  10.707   9.552   4.593
   70DIO    H1652916  10.694   9.665   4.309
   70DIO    H1752917  10.833   9.659   4.416
   70DIO    H1852918  10.824   9.406   4.410
   70DIO    H1952919  10.693   9.417   4.290
   70DIO    H2052920  10.854   9.481   4.252
   71DIO     F152921   6.863   8.057   2.517
   71DIO     C152922   6.941   8.000   2.611
   71DIO     C252923   7.085   8.000   2.594
   71DIO     C352924   7.174   7.936   2.693
   71DIO     C452925   7.108   7.875   2.811
   71DIO     C552926   6.964   7.876   2.826
   71DIO     F252927   6.909   7.823   2.937
   71DIO     C652928   6.880   7.939   2.726
   71DIO     F352929   6.746   7.938   2.741
   71DIO     C752930   7.320   7.935   2.677
   71DIO     C852931   7.397   7.809   2.690
   71DIO     C952932   7.542   7.807   2.675
   71DIO    C1052933   7.615   7.931   2.657
   71DIO    C1152934   7.542   8.056   2.636
   71DIO    C1252935   7.398   8.057   2.649
   71DIO     F452936   7.333   8.174   2.634
   71DIO     O152937   7.747   7.920   2.619
   71DIO    C1352938   7.841   8.013   2.662
   71DIO     O252939   7.842   8.097   2.756
   71DIO    C1452940   7.970   7.997   2.594
   71DIO    C1552941   8.037   7.866   2.582
   71DIO     F552942   7.974   7.754   2.625
   71DIO    C1652943   8.167   7.849   2.521
   71DIO    C1752944   8.243   7.965   2.476
   71DIO    C1852945   8.174   8.094   2.472
   71DIO    C1952946   8.043   8.110   2.531
   71DIO     F652947   7.980   8.228   2.511
   71DIO    C2052948   8.384   7.951   2.423
   71DIO     O352949   8.454   7.837   2.474
   71DIO    C2152950   8.497   7.855   2.608
   71DIO    C2252951   8.586   7.978   2.621
   71DIO    C2352952   8.505   8.096   2.568
   71DIO     O452953   8.461   8.071   2.435
   71DIO    C2452954   8.719   7.965   2.543
   71DIO    C2552955   8.810   7.849   2.584
   71DIO    C2652956   8.848   7.849   2.731
   71DIO     H152957   7.128   8.048   2.506
   71DIO     H252958   7.169   7.836   2.892
   71DIO     H352959   7.346   7.715   2.706
   71DIO     H452960   7.597   7.714   2.676
   71DIO     H552961   7.596   8.147   2.617
   71DIO     H652962   8.206   7.749   2.507
   71DIO     H752963   8.217   8.178   2.419
   71DIO     H852964   8.374   7.933   2.315
   71DIO     H952965   8.411   7.863   2.675
   71DIO    H1052966   8.550   7.764   2.638
   71DIO    H1152967   8.609   7.996   2.727
   71DIO    H1252968   8.567   8.187   2.566
   71DIO    H1352969   8.419   8.117   2.632
   71DIO    H1452970   8.699   7.957   2.436
   71DIO    H1552971   8.775   8.059   2.556
   71DIO    H1652972   8.762   7.753   2.559
   71DIO    H1752973   8.901   7.854   2.524
   71DIO    H1852974   8.892   7.945   2.760
   71DIO    H1952975   8.762   7.830   2.795
   71DIO    H2052976   8.922   7.771   2.751
   72DIO     F152977   2.128   3.138  10.088
   72DIO     C152978   2.206   3.204  10.001
   72DIO     C252979   2.350   3.202  10.017
   72DIO     C352980   2.438   3.276   9.925
   72DIO     C452981   2.373   3.349   9.814
   72DIO     C552982   2.229   3.350   9.799
   72DIO     F252983   2.173   3.414   9.695
   72DIO     C652984   2.145   3.277   9.892
   72DIO     F352985   2.011   3.279   9.878
   72DIO     C752986   2.585   3.276   9.941
   72DIO     C852987   2.662   3.403   9.941
   72DIO     C952988   2.807   3.403   9.956
   72DIO    C1052989   2.879   3.277   9.962
   72DIO    C1152990   2.807   3.152   9.969
   72DIO    C1252991   2.663   3.152   9.957
   72DIO     F452992   2.598   3.033   9.959
   72DIO     O152993   3.011   3.285  10.000
   72DIO    C1352994   3.106   3.197   9.948
   72DIO     O252995   3.107   3.123   9.846
   72DIO    C1452996   3.235   3.205  10.017
   72DIO    C1552997   3.301   3.335  10.043
   72DIO     F552998   3.239   3.450  10.012
   72DIO    C1652999   3.432   3.345  10.105
   72DIO    C1753000   3.508   3.225  10.138
   72DIO    C1853001   3.439   3.096  10.129
   72DIO    C1953002   3.308   3.087  10.068
   72DIO     F653003   3.245   2.967  10.077
   72DIO    C2053004   3.649   3.233  10.192
   72DIO     O353005   3.718   3.352  10.153
   72DIO    C2153006   3.762   3.348  10.018
   72DIO    C2253007   3.851   3.227   9.992
   72DIO    C2353008   3.770   3.104  10.033
   72DIO     O453009   3.726   3.115  10.168
   72DIO    C2453010   3.984   3.232  10.071
   72DIO    C2553011   4.074   3.352  10.043
   72DIO    C2653012   4.113   3.366   9.896
   72DIO     H153013   2.392   3.146  10.099
   72DIO     H253014   2.434   3.397   9.737
   72DIO     H353015   2.610   3.497   9.935
   72DIO     H453016   2.862   3.495   9.964
   72DIO     H553017   2.861   3.059   9.979
   72DIO     H653018   3.470   3.443  10.129
   72DIO     H753019   3.482   3.007  10.172
   72DIO     H853020   3.639   3.240  10.301
   72DIO     H953021   3.675   3.347   9.951
   72DIO    H1053022   3.815   3.442   9.997
   72DIO    H1153023   3.873   3.220   9.885
   72DIO    H1253024   3.831   3.013  10.026
   72DIO    H1353025   3.684   3.090   9.967
   72DIO    H1453026   3.964   3.229  10.179
   72DIO    H1553027   4.040   3.140  10.049
   72DIO    H1653028   4.027   3.444  10.077
   72DIO    H1753029   4.166   3.340  10.102
   72DIO    H1853030   4.157   3.274   9.857
   72DIO    H1953031   4.026   3.392   9.834
   72DIO    H2053032   4.186   3.446   9.885
   73DIO     F153033   1.872   7.915   4.543
   73DIO     C153034   1.950   8.014   4.591
   73DIO     C253035   2.094   7.997   4.592
   73DIO     C353036   2.183   8.102   4.647
   73DIO     C453037   2.117   8.225   4.697
   73DIO     C553038   1.973   8.239   4.695
   73DIO     F253039   1.918   8.355   4.738
   73DIO     C653040   1.889   8.135   4.642
   73DIO     F353041   1.756   8.149   4.641
   73DIO     C753042   2.329   8.086   4.650
   73DIO     C853043   2.406   8.111   4.774
   73DIO     C953044   2.551   8.096   4.777
   73DIO    C1053045   2.624   8.066   4.655
   73DIO    C1153046   2.551   8.034   4.533
   73DIO    C1253047   2.407   8.047   4.531
   73DIO     F453048   2.342   8.022   4.416
   73DIO     O153049   2.756   8.030   4.670
   73DIO    C1353050   2.850   8.064   4.574
   73DIO     O253051   2.851   8.150   4.481
   73DIO    C1453052   2.979   7.998   4.595
   73DIO    C1553053   3.046   7.997   4.727
   73DIO     F553054   2.983   8.050   4.835
   73DIO    C1653055   3.177   7.938   4.749
   73DIO    C1753056   3.252   7.883   4.638
   73DIO    C1853057   3.184   7.867   4.510
   73DIO    C1953058   3.052   7.925   4.489
   73DIO     F653059   2.989   7.894   4.373
   73DIO    C2053060   3.393   7.831   4.656
   73DIO     O353061   3.463   7.893   4.766
   73DIO    C2153062   3.506   8.025   4.736
   73DIO    C2253063   3.595   8.026   4.612
   73DIO    C2353064   3.515   7.962   4.499
   73DIO     O453065   3.470   7.832   4.536
   73DIO    C2453066   3.728   7.950   4.632
   73DIO    C2553067   3.819   8.001   4.744
   73DIO    C2653068   3.857   8.148   4.730
   73DIO     H153069   2.137   7.905   4.553
   73DIO     H253070   2.178   8.309   4.729
   73DIO     H353071   2.355   8.135   4.866
   73DIO     H453072   2.606   8.105   4.870
   73DIO     H553073   2.606   8.007   4.444
   73DIO     H653074   3.215   7.934   4.851
   73DIO     H753075   3.226   7.807   4.431
   73DIO     H853076   3.383   7.726   4.684
   73DIO     H953077   3.420   8.090   4.722
   73DIO    H1053078   3.559   8.063   4.824
   73DIO    H1153079   3.618   8.130   4.585
   73DIO    H1253080   3.576   7.952   4.409
   73DIO    H1353081   3.428   8.025   4.472
   73DIO    H1453082   3.708   7.843   4.650
   73DIO    H1553083   3.785   7.954   4.538
   73DIO    H1653084   3.771   7.985   4.841
   73DIO    H1753085   3.911   7.941   4.744
   73DIO    H1853086   3.901   8.168   4.632
   73DIO    H1953087   3.771   8.213   4.743
   73DIO    H2053088   3.931   8.174   4.806
   74DIO     F153089   4.067   3.478   3.130
   74DIO     C153090   4.145   3.588   3.124
   74DIO     C253091   4.289   3.574   3.133
   74DIO     C353092   4.378   3.692   3.130
   74DIO     C453093   4.312   3.824   3.114
   74DIO     C553094   4.168   3.835   3.104
   74DIO     F253095   4.112   3.957   3.086
   74DIO     C653096   4.084   3.718   3.109
   74DIO     F353097   3.950   3.730   3.102
   74DIO     C753098   4.524   3.680   3.140
   74DIO     C853099   4.601   3.762   3.236
   74DIO     C953100   4.746   3.750   3.246
   74DIO    C1053101   4.818   3.665   3.154
   74DIO    C1153102   4.746   3.577   3.064
   74DIO    C1253103   4.602   3.587   3.056
   74DIO     F453104   4.537   3.509   2.967
   74DIO     O153105   4.951   3.640   3.185
   74DIO    C1353106   5.045   3.623   3.084
   74DIO     O253107   5.046   3.653   2.962
   74DIO    C1453108   5.174   3.576   3.135
   74DIO    C1553109   5.240   3.640   3.251
   74DIO     F553110   5.178   3.739   3.319
   74DIO    C1653111   5.371   3.599   3.299
   74DIO    C1753112   5.447   3.496   3.228
   74DIO    C1853113   5.378   3.420   3.125
   74DIO    C1953114   5.247   3.460   3.078
   74DIO     F653115   5.184   3.377   2.993
   74DIO    C2053116   5.588   3.461   3.270
   74DIO     O353117   5.657   3.567   3.336
   74DIO    C2153118   5.701   3.668   3.245
   74DIO    C2253119   5.790   3.609   3.136
   74DIO    C2353120   5.709   3.498   3.069
   74DIO     O453121   5.665   3.402   3.165
   74DIO    C2453122   5.923   3.552   3.191
   74DIO    C2553123   6.013   3.651   3.264
   74DIO    C2653124   6.052   3.772   3.180
   74DIO     H153125   4.331   3.475   3.143
   74DIO     H253126   4.373   3.913   3.100
   74DIO     H353127   4.550   3.828   3.305
   74DIO     H453128   4.801   3.804   3.322
   74DIO     H553129   4.800   3.510   2.999
   74DIO     H653130   5.409   3.645   3.390
   74DIO     H753131   5.421   3.329   3.085
   74DIO     H853132   5.578   3.382   3.346
   74DIO     H953133   5.614   3.718   3.201
   74DIO    H1053134   5.754   3.744   3.303
   74DIO    H1153135   5.813   3.686   3.062
   74DIO    H1253136   5.770   3.445   2.995
   74DIO    H1353137   5.623   3.539   3.015
   74DIO    H1453138   5.903   3.468   3.259
   74DIO    H1553139   5.979   3.510   3.106
   74DIO    H1653140   5.966   3.685   3.357
   74DIO    H1753141   6.105   3.599   3.293
   74DIO    H1853142   6.096   3.742   3.084
   74DIO    H1953143   5.965   3.836   3.160
   74DIO    H2053144   6.126   3.833   3.233
   75DIO     F153145  -0.792   1.281   4.365
   75DIO     C153146  -0.715   1.274   4.475
   75DIO     C253147  -0.571   1.266   4.460
   75DIO     C353148  -0.482   1.256   4.578
   75DIO     C453149  -0.547   1.256   4.711
   75DIO     C553150  -0.692   1.264   4.723
   75DIO     F253151  -0.747   1.268   4.846
   75DIO     C653152  -0.775   1.273   4.606
   75DIO     F353153  -0.909   1.279   4.619
   75DIO     C753154  -0.335   1.247   4.565
   75DIO     C853155  -0.258   1.141   4.634
   75DIO     C953156  -0.114   1.133   4.622
   75DIO    C1053157  -0.041   1.234   4.548
   75DIO    C1153158  -0.113   1.335   4.472
   75DIO    C1253159  -0.258   1.342   4.483
   75DIO     F453160  -0.322   1.439   4.416
   75DIO     O153161   0.091   1.207   4.520
   75DIO    C1353162   0.186   1.309   4.515
   75DIO     O253163   0.187   1.427   4.560
   75DIO    C1453164   0.315   1.264   4.462
   75DIO    C1553165   0.381   1.141   4.512
   75DIO     F553166   0.319   1.062   4.602
   75DIO    C1653167   0.512   1.099   4.466
   75DIO    C1753168   0.588   1.181   4.372
   75DIO    C1853169   0.519   1.293   4.309
   75DIO    C1953170   0.387   1.334   4.354
   75DIO     F653171   0.325   1.429   4.281
   75DIO    C2053172   0.728   1.144   4.332
   75DIO     O353173   0.798   1.066   4.430
   75DIO    C2153174   0.842   1.144   4.540
   75DIO    C2253175   0.931   1.259   4.495
   75DIO    C2353176   0.850   1.339   4.393
   75DIO     O453177   0.806   1.255   4.286
   75DIO    C2453178   1.064   1.212   4.431
   75DIO    C2553179   1.154   1.127   4.522
   75DIO    C2653180   1.193   1.196   4.652
   75DIO     H153181  -0.528   1.268   4.360
   75DIO     H253182  -0.487   1.258   4.801
   75DIO     H353183  -0.310   1.066   4.692
   75DIO     H453184  -0.058   1.051   4.666
   75DIO     H553185  -0.059   1.407   4.413
   75DIO     H653186   0.550   1.003   4.500
   75DIO     H753187   0.562   1.343   4.223
   75DIO     H853188   0.719   1.078   4.244
   75DIO     H953189   0.755   1.182   4.596
   75DIO    H1053190   0.895   1.077   4.609
   75DIO    H1153191   0.953   1.324   4.580
   75DIO    H1253192   0.911   1.419   4.349
   75DIO    H1353193   0.764   1.388   4.440
   75DIO    H1453194   1.044   1.154   4.340
   75DIO    H1553195   1.120   1.300   4.400
   75DIO    H1653196   1.107   1.031   4.544
   75DIO    H1753197   1.246   1.104   4.466
   75DIO    H1853198   1.237   1.295   4.633
   75DIO    H1953199   1.106   1.209   4.718
   75DIO    H2053200   1.266   1.136   4.706
   76DIO     F153201  -0.525   0.964   1.192
   76DIO     C153202  -0.448   0.936   1.085
   76DIO     C253203  -0.304   0.948   1.097
   76DIO     C353204  -0.215   0.921   0.982
   76DIO     C453205  -0.280   0.880   0.856
   76DIO     C553206  -0.425   0.869   0.846
   76DIO     F253207  -0.480   0.826   0.731
   76DIO     C653208  -0.508   0.896   0.961
   76DIO     F353209  -0.642   0.886   0.950
   76DIO     C753210  -0.068   0.934   0.992
   76DIO     C853211   0.009   1.012   0.893
   76DIO     C953212   0.153   1.024   0.902
   76DIO    C1053213   0.226   0.951   1.004
   76DIO    C1153214   0.154   0.879   1.107
   76DIO    C1253215   0.009   0.869   1.099
   76DIO     F453216  -0.055   0.798   1.193
   76DIO     O153217   0.358   0.986   1.022
   76DIO    C1353218   0.453   0.890   1.058
   76DIO     O253219   0.454   0.764   1.053
   76DIO    C1453220   0.582   0.950   1.095
   76DIO    C1553221   0.648   1.051   1.009
   76DIO     F553222   0.586   1.098   0.899
   76DIO    C1653223   0.779   1.105   1.040
   76DIO    C1753224   0.855   1.057   1.154
   76DIO    C1853225   0.786   0.970   1.249
   76DIO    C1953226   0.654   0.916   1.219
   76DIO     F653227   0.592   0.849   1.318
   76DIO    C2053228   0.995   1.104   1.181
   76DIO     O353229   1.065   1.148   1.064
   76DIO    C2153230   1.109   1.039   0.983
   76DIO    C2253231   1.198   0.944   1.062
   76DIO    C2353232   1.117   0.900   1.184
   76DIO     O453233   1.073   1.012   1.259
   76DIO    C2453234   1.331   1.009   1.108
   76DIO    C2553235   1.421   1.061   0.996
   76DIO    C2653236   1.460   0.955   0.893
   76DIO     H153237  -0.261   0.977   1.192
   76DIO     H253238  -0.220   0.849   0.771
   76DIO     H353239  -0.043   1.066   0.814
   76DIO     H453240   0.209   1.089   0.835
   76DIO     H553241   0.208   0.829   1.186
   76DIO     H653242   0.817   1.186   0.978
   76DIO     H753243   0.829   0.949   1.347
   76DIO     H853244   0.986   1.194   1.244
   76DIO     H953245   1.022   0.986   0.942
   76DIO    H1053246   1.162   1.081   0.897
   76DIO    H1153247   1.220   0.856   1.001
   76DIO    H1253248   1.178   0.838   1.250
   76DIO    H1353249   1.031   0.839   1.154
   76DIO    H1453250   1.311   1.092   1.176
   76DIO    H1553251   1.387   0.934   1.165
   76DIO    H1653252   1.374   1.145   0.945
   76DIO    H1753253   1.513   1.100   1.041
   76DIO    H1853254   1.504   0.867   0.942
   76DIO    H1953255   1.373   0.923   0.835
   76DIO    H2053256   1.533   0.996   0.823
   77DIO     F153257   4.846  -0.072   9.594
   77DIO     C153258   4.924  -0.112   9.697
   77DIO     C253259   5.068  -0.115   9.680
   77DIO     C353260   5.157  -0.161   9.789
   77DIO     C453261   5.091  -0.201   9.916
   77DIO     C553262   4.947  -0.197   9.930
   77DIO     F253263   4.891  -0.230  10.048
   77DIO     C653264   4.863  -0.153   9.821
   77DIO     F353265   4.729  -0.151   9.835
   77DIO     C753266   5.303  -0.165   9.774
   77DIO     C853267   5.380  -0.287   9.808
   77DIO     C953268   5.525  -0.291   9.794
   77DIO    C1053269   5.597  -0.172   9.754
   77DIO    C1153270   5.525  -0.053   9.712
   77DIO    C1253271   5.381  -0.050   9.724
   77DIO     F453272   5.316   0.063   9.690
   77DIO     O153273   5.730  -0.190   9.719
   77DIO    C1353274   5.824  -0.091   9.745
   77DIO     O253275   5.825   0.008   9.823
   77DIO    C1453276   5.953  -0.118   9.681
   77DIO    C1553277   6.019  -0.250   9.692
   77DIO     F553278   5.957  -0.352   9.753
   77DIO    C1653279   6.150  -0.276   9.635
   77DIO    C1753280   6.226  -0.170   9.570
   77DIO    C1853281   6.157  -0.044   9.544
   77DIO    C1953282   6.026  -0.018   9.599
   77DIO     F653283   5.963   0.095   9.559
   77DIO    C2053284   6.367  -0.193   9.520
   77DIO     O353285   6.436  -0.296   9.590
   77DIO    C2153286   6.480  -0.256   9.719
   77DIO    C2253287   6.569  -0.132   9.711
   77DIO    C2353288   6.488  -0.025   9.638
   77DIO     O453289   6.444  -0.073   9.511
   77DIO    C2453290   6.702  -0.158   9.636
   77DIO    C2553291   6.792  -0.266   9.697
   77DIO    C2653292   6.831  -0.240   9.841
   77DIO     H153293   5.110  -0.083   9.585
   77DIO     H253294   5.152  -0.225  10.002
   77DIO     H353295   5.329  -0.376   9.840
   77DIO     H453296   5.580  -0.382   9.811
   77DIO     H553297   5.579   0.034   9.677
   77DIO     H653298   6.188  -0.378   9.638
   77DIO     H753299   6.200   0.030   9.477
   77DIO     H853300   6.357  -0.229   9.417
   77DIO     H953301   6.393  -0.236   9.783
   77DIO    H1053302   6.533  -0.340   9.765
   77DIO    H1153303   6.592  -0.096   9.812
   77DIO    H1253304   6.549   0.064   9.620
   77DIO    H1353305   6.402   0.007   9.698
   77DIO    H1453306   6.682  -0.186   9.532
   77DIO    H1553307   6.758  -0.064   9.633
   77DIO    H1653308   6.745  -0.364   9.689
   77DIO    H1753309   6.884  -0.271   9.637
   77DIO    H1853310   6.875  -0.140   9.853
   77DIO    H1953311   6.744  -0.248   9.908
   77DIO    H2053312   6.905  -0.313   9.875
   78DIO     F153313   6.966  -0.798   6.680
   78DIO     C153314   7.044  -0.833   6.576
   78DIO     C253315   7.188  -0.820   6.587
   78DIO     C353316   7.277  -0.854   6.474
   78DIO     C453317   7.211  -0.904   6.351
   78DIO     C553318   7.067  -0.916   6.342
   78DIO     F253319   7.012  -0.966   6.230
   78DIO     C653320   6.983  -0.881   6.454
   78DIO     F353321   6.849  -0.891   6.445
   78DIO     C753322   7.423  -0.841   6.483
   78DIO     C853323   7.500  -0.770   6.379
   78DIO     C953324   7.645  -0.757   6.387
   78DIO    C1053325   7.718  -0.823   6.494
   78DIO    C1153326   7.645  -0.888   6.602
   78DIO    C1253327   7.501  -0.899   6.594
   78DIO     F453328   7.436  -0.964   6.693
   78DIO     O153329   7.850  -0.788   6.509
   78DIO    C1353330   7.944  -0.880   6.552
   78DIO     O253331   7.945  -1.006   6.555
   78DIO    C1453332   8.073  -0.819   6.584
   78DIO    C1553333   8.140  -0.724   6.492
   78DIO     F553334   8.077  -0.684   6.380
   78DIO    C1653335   8.270  -0.667   6.519
   78DIO    C1753336   8.346  -0.708   6.637
   78DIO    C1853337   8.277  -0.788   6.738
   78DIO    C1953338   8.146  -0.843   6.711
   78DIO     F653339   8.083  -0.904   6.814
   78DIO    C2053340   8.487  -0.658   6.661
   78DIO     O353341   8.557  -0.623   6.541
   78DIO    C2153342   8.600  -0.737   6.467
   78DIO    C2253343   8.689  -0.826   6.553
   78DIO    C2353344   8.608  -0.862   6.677
   78DIO     O453345   8.564  -0.745   6.745
   78DIO    C2453346   8.822  -0.759   6.593
   78DIO    C2553347   8.913  -0.714   6.478
   78DIO    C2653348   8.951  -0.827   6.383
   78DIO     H153349   7.231  -0.784   6.680
   78DIO     H253350   7.272  -0.940   6.268
   78DIO     H353351   7.449  -0.721   6.297
   78DIO     H453352   7.700  -0.697   6.316
   78DIO     H553353   7.699  -0.933   6.684
   78DIO     H653354   8.309  -0.591   6.452
   78DIO     H753355   8.320  -0.803   6.836
   78DIO     H853356   8.477  -0.565   6.717
   78DIO     H953357   8.514  -0.792   6.430
   78DIO    H1053358   8.653  -0.701   6.378
   78DIO    H1153359   8.712  -0.918   6.498
   78DIO    H1253360   8.670  -0.920   6.747
   78DIO    H1353361   8.522  -0.925   6.651
   78DIO    H1453362   8.802  -0.671   6.656
   78DIO    H1553363   8.878  -0.829   6.656
   78DIO    H1653364   8.865  -0.633   6.422
   78DIO    H1753365   9.004  -0.672   6.521
   78DIO    H1853366   8.995  -0.911   6.437
   78DIO    H1953367   8.865  -0.863   6.327
   78DIO    H2053368   9.025  -0.791   6.311
   79DIO     F153369   7.137   2.372   3.952
   79DIO     C153370   7.215   2.291   3.877
   79DIO     C253371   7.359   2.308   3.881
   79DIO     C353372   7.448   2.223   3.798
   79DIO     C453373   7.382   2.120   3.715
   79DIO     C553374   7.238   2.105   3.713
   79DIO     F253375   7.182   2.007   3.639
   79DIO     C653376   7.154   2.190   3.794
   79DIO     F353377   7.020   2.176   3.791
   79DIO     C753378   7.594   2.239   3.800
   79DIO     C853379   7.671   2.251   3.674
   79DIO     C953380   7.816   2.267   3.676
   79DIO    C1053381   7.888   2.260   3.801
   79DIO    C1153382   7.816   2.255   3.927
   79DIO    C1253383   7.672   2.243   3.925
   79DIO     F453384   7.607   2.233   4.043
   79DIO     O153385   8.021   2.299   3.797
   79DIO    C1353386   8.115   2.238   3.880
   79DIO     O253387   8.116   2.129   3.943
   79DIO    C1453388   8.244   2.308   3.878
   79DIO    C1553389   8.310   2.346   3.752
   79DIO     F553390   8.248   2.327   3.634
   79DIO    C1653391   8.441   2.409   3.748
   79DIO    C1753392   8.517   2.430   3.871
   79DIO    C1853393   8.448   2.408   3.997
   79DIO    C1953394   8.317   2.347   4.001
   79DIO     F653395   8.254   2.343   4.121
   79DIO    C2053396   8.658   2.485   3.868
   79DIO     O353397   8.727   2.458   3.745
   79DIO    C2153398   8.771   2.323   3.736
   79DIO    C2253399   8.860   2.285   3.854
   79DIO    C2353400   8.779   2.314   3.980
   79DIO     O453401   8.735   2.449   3.983
   79DIO    C2453402   8.993   2.364   3.857
   79DIO    C2553403   9.083   2.348   3.735
   79DIO    C2653404   9.122   2.203   3.706
   79DIO     H153405   7.401   2.384   3.945
   79DIO     H253406   7.443   2.048   3.660
   79DIO     H353407   7.620   2.255   3.579
   79DIO     H453408   7.871   2.284   3.584
   79DIO     H553409   7.870   2.255   4.020
   79DIO     H653410   8.479   2.443   3.652
   79DIO     H753411   8.491   2.443   4.091
   79DIO     H853412   8.648   2.594   3.872
   79DIO     H953413   8.684   2.256   3.730
   79DIO    H1053414   8.824   2.311   3.641
   79DIO    H1153415   8.883   2.178   3.850
   79DIO    H1253416   8.840   2.297   4.070
   79DIO    H1353417   8.693   2.247   3.988
   79DIO    H1453418   8.973   2.471   3.870
   79DIO    H1553419   9.049   2.333   3.946
   79DIO    H1653420   9.036   2.391   3.646
   79DIO    H1753421   9.175   2.405   3.752
   79DIO    H1853422   9.166   2.156   3.794
   79DIO    H1953423   9.035   2.145   3.674
   79DIO    H2053424   9.196   2.200   3.625
   80DIO     F153425   6.063   0.338   3.245
   80DIO     C153426   6.140   0.370   3.350
   80DIO     C253427   6.284   0.358   3.339
   80DIO     C353428   6.373   0.390   3.453
   80DIO     C453429   6.308   0.437   3.577
   80DIO     C553430   6.163   0.449   3.586
   80DIO     F253431   6.108   0.496   3.699
   80DIO     C653432   6.080   0.416   3.473
   80DIO     F353433   5.946   0.426   3.483
   80DIO     C753434   6.520   0.377   3.444
   80DIO     C853435   6.597   0.303   3.546
   80DIO     C953436   6.741   0.291   3.537
   80DIO    C1053437   6.814   0.360   3.432
   80DIO    C1153438   6.741   0.427   3.326
   80DIO    C1253439   6.597   0.437   3.333
   80DIO     F453440   6.532   0.504   3.236
   80DIO     O153441   6.946   0.324   3.416
   80DIO    C1353442   7.041   0.418   3.375
   80DIO     O253443   7.042   0.544   3.375
   80DIO    C1453444   7.170   0.357   3.341
   80DIO    C1553445   7.236   0.260   3.432
   80DIO     F553446   7.173   0.218   3.543
   80DIO    C1653447   7.367   0.204   3.403
   80DIO    C1753448   7.443   0.247   3.287
   80DIO    C1853449   7.374   0.329   3.188
   80DIO    C1953450   7.242   0.384   3.215
   80DIO     F653451   7.180   0.447   3.114
   80DIO    C2053452   7.583   0.198   3.262
   80DIO     O353453   7.653   0.160   3.381
   80DIO    C2153454   7.697   0.272   3.457
   80DIO    C2253455   7.786   0.364   3.374
   80DIO    C2353456   7.705   0.403   3.250
   80DIO     O453457   7.661   0.287   3.180
   80DIO    C2453458   7.918   0.297   3.331
   80DIO    C2553459   8.009   0.250   3.445
   80DIO    C2653460   8.048   0.361   3.543
   80DIO     H153461   6.327   0.325   3.245
   80DIO     H253462   6.368   0.472   3.660
   80DIO     H353463   6.545   0.253   3.627
   80DIO     H453464   6.796   0.230   3.607
   80DIO     H553465   6.796   0.473   3.245
   80DIO     H653466   7.405   0.126   3.469
   80DIO     H753467   7.417   0.346   3.090
   80DIO     H853468   7.574   0.106   3.204
   80DIO     H953469   7.610   0.327   3.495
   80DIO    H1053470   7.750   0.234   3.545
   80DIO    H1153471   7.808   0.455   3.430
   80DIO    H1253472   7.766   0.462   3.181
   80DIO    H1353473   7.619   0.465   3.277
   80DIO    H1453474   7.899   0.211   3.266
   80DIO    H1553475   7.975   0.369   3.270
   80DIO    H1653476   7.962   0.168   3.500
   80DIO    H1753477   8.101   0.209   3.402
   80DIO    H1853478   8.091   0.446   3.490
   80DIO    H1953479   7.961   0.396   3.600
   80DIO    H2053480   8.121   0.323   3.615
   81DIO     F153481   2.183  10.239   1.235
   81DIO     C153482   2.260  10.141   1.285
   81DIO     C253483   2.405  10.150   1.270
   81DIO     C353484   2.493  10.043   1.321
   81DIO     C453485   2.428   9.929   1.389
   81DIO     C553486   2.284   9.922   1.402
   81DIO     F253487   2.228   9.818   1.468
   81DIO     C653488   2.200  10.028   1.351
   81DIO     F353489   2.066  10.020   1.362
   81DIO     C753490   2.640  10.050   1.307
   81DIO     C853491   2.717   9.936   1.252
   81DIO     C953492   2.862   9.943   1.238
   81DIO    C1053493   2.934  10.058   1.288
   81DIO    C1153494   2.862  10.175   1.336
   81DIO    C1253495   2.718  10.169   1.347
   81DIO     F453496   2.653  10.276   1.397
   81DIO     O153497   3.066  10.068   1.250
   81DIO    C1353498   3.161  10.124   1.336
   81DIO     O253499   3.162  10.146   1.460
   81DIO    C1453500   3.290  10.147   1.270
   81DIO    C1553501   3.356  10.042   1.189
   81DIO     F553502   3.294   9.925   1.167
   81DIO    C1653503   3.487  10.060   1.129
   81DIO    C1753504   3.563  10.183   1.152
   81DIO    C1853505   3.494  10.294   1.217
   81DIO    C1953506   3.362  10.276   1.275
   81DIO     F653507   3.300  10.387   1.320
   81DIO    C2053508   3.704  10.199   1.100
   81DIO     O353509   3.773  10.075   1.083
   81DIO    C2153510   3.817  10.019   1.206
   81DIO    C2253511   3.906  10.117   1.282
   81DIO    C2353512   3.825  10.245   1.299
   81DIO     O453513   3.781  10.295   1.173
   81DIO    C2453514   4.039  10.147   1.209
   81DIO    C2553515   4.129  10.027   1.182
   81DIO    C2653516   4.168   9.949   1.308
   81DIO     H153517   2.447  10.237   1.222
   81DIO     H253518   2.488   9.852   1.437
   81DIO     H353519   2.665   9.848   1.216
   81DIO     H453520   2.917   9.863   1.190
   81DIO     H553521   2.916  10.262   1.368
   81DIO     H653522   3.525   9.982   1.064
   81DIO     H753523   3.537  10.393   1.217
   81DIO     H853524   3.694  10.240   0.999
   81DIO     H953525   3.730   9.991   1.267
   81DIO    H1053526   3.870   9.926   1.184
   81DIO    H1153527   3.928  10.076   1.381
   81DIO    H1253528   3.886  10.323   1.346
   81DIO    H1353529   3.739  10.229   1.365
   81DIO    H1453530   4.019  10.196   1.113
   81DIO    H1553531   4.095  10.220   1.269
   81DIO    H1653532   4.082   9.959   1.110
   81DIO    H1753533   4.221  10.063   1.134
   81DIO    H1853534   4.212  10.015   1.383
   81DIO    H1953535   4.081   9.899   1.352
   81DIO    H2053536   4.241   9.872   1.283
   82DIO     F153537  -0.033  -0.830   9.176
   82DIO     C153538   0.044  -0.766   9.086
   82DIO     C253539   0.188  -0.768   9.103
   82DIO     C353540   0.277  -0.697   9.008
   82DIO     C453541   0.212  -0.627   8.895
   82DIO     C553542   0.067  -0.627   8.880
   82DIO     F253543   0.012  -0.566   8.774
   82DIO     C653544  -0.016  -0.697   8.975
   82DIO     F353545  -0.150  -0.695   8.961
   82DIO     C753546   0.423  -0.696   9.024
   82DIO     C853547   0.501  -0.570   9.020
   82DIO     C953548   0.645  -0.569   9.035
   82DIO    C1053549   0.718  -0.694   9.045
   82DIO    C1153550   0.645  -0.820   9.057
   82DIO    C1253551   0.501  -0.820   9.044
   82DIO     F453552   0.436  -0.938   9.050
   82DIO     O153553   0.850  -0.686   9.083
   82DIO    C1353554   0.945  -0.775   9.033
   82DIO     O253555   0.945  -0.852   8.934
   82DIO    C1453556   1.074  -0.765   9.102
   82DIO    C1553557   1.140  -0.634   9.124
   82DIO     F553558   1.077  -0.520   9.090
   82DIO    C1653559   1.271  -0.622   9.186
   82DIO    C1753560   1.347  -0.742   9.223
   82DIO    C1853561   1.278  -0.870   9.218
   82DIO    C1953562   1.146  -0.881   9.157
   82DIO     F653563   1.084  -1.001   9.169
   82DIO    C2053564   1.487  -0.731   9.277
   82DIO     O353565   1.557  -0.614   9.234
   82DIO    C2153566   1.601  -0.622   9.099
   82DIO    C2253567   1.690  -0.744   9.077
   82DIO    C2353568   1.609  -0.865   9.122
   82DIO     O453569   1.565  -0.850   9.257
   82DIO    C2453570   1.822  -0.737   9.156
   82DIO    C2553571   1.913  -0.617   9.124
   82DIO    C2653572   1.951  -0.607   8.977
   82DIO     H153573   0.231  -0.822   9.187
   82DIO     H253574   0.272  -0.582   8.817
   82DIO     H353575   0.449  -0.475   9.011
   82DIO     H453576   0.700  -0.476   9.041
   82DIO     H553577   0.700  -0.912   9.069
   82DIO     H653578   1.309  -0.523   9.207
   82DIO     H753579   1.321  -0.958   9.264
   82DIO     H853580   1.478  -0.721   9.385
   82DIO     H953581   1.514  -0.625   9.032
   82DIO    H1053582   1.653  -0.529   9.075
   82DIO    H1153583   1.712  -0.754   8.971
   82DIO    H1253584   1.670  -0.956   9.117
   82DIO    H1353585   1.523  -0.882   9.056
   82DIO    H1453586   1.802  -0.735   9.264
   82DIO    H1553587   1.879  -0.829   9.136
   82DIO    H1653588   1.866  -0.524   9.155
   82DIO    H1753589   2.005  -0.627   9.183
   82DIO    H1853590   1.995  -0.701   8.941
   82DIO    H1953591   1.865  -0.583   8.914
   82DIO    H2053592   2.025  -0.528   8.963
   83DIO     F153593   0.487   7.379   3.204
   83DIO     C153594   0.565   7.480   3.161
   83DIO     C253595   0.709   7.470   3.175
   83DIO     C353596   0.798   7.580   3.131
   83DIO     C453597   0.732   7.699   3.071
   83DIO     C553598   0.588   7.707   3.059
   83DIO     F253599   0.533   7.815   3.000
   83DIO     C653600   0.504   7.598   3.103
   83DIO     F353601   0.371   7.607   3.092
   83DIO     C753602   0.944   7.573   3.145
   83DIO     C853603   1.021   7.682   3.208
   83DIO     C953604   1.166   7.675   3.221
   83DIO    C1053605   1.239   7.563   3.164
   83DIO    C1153606   1.166   7.450   3.108
   83DIO    C1253607   1.022   7.457   3.097
   83DIO     F453608   0.957   7.353   3.040
   83DIO     O153609   1.371   7.551   3.201
   83DIO    C1353610   1.465   7.500   3.112
   83DIO     O253611   1.466   7.487   2.986
   83DIO    C1453612   1.595   7.473   3.176
   83DIO    C1553613   1.661   7.573   3.263
   83DIO     F553614   1.598   7.688   3.293
   83DIO    C1653615   1.792   7.550   3.322
   83DIO    C1753616   1.867   7.430   3.290
   83DIO    C1853617   1.799   7.323   3.219
   83DIO    C1953618   1.667   7.345   3.161
   83DIO     F653619   1.605   7.237   3.109
   83DIO    C2053620   2.008   7.410   3.342
   83DIO     O353621   2.078   7.533   3.367
   83DIO    C2153622   2.122   7.597   3.248
   83DIO    C2253623   2.210   7.504   3.165
   83DIO    C2353624   2.130   7.377   3.140
   83DIO     O453625   2.085   7.320   3.262
   83DIO    C2453626   2.343   7.469   3.236
   83DIO    C2553627   2.434   7.587   3.271
   83DIO    C2653628   2.472   7.673   3.151
   83DIO     H153629   0.752   7.380   3.218
   83DIO     H253630   0.793   7.778   3.029
   83DIO     H353631   0.970   7.767   3.250
   83DIO     H453632   1.221   7.751   3.275
   83DIO     H553633   1.221   7.365   3.070
   83DIO     H653634   1.830   7.624   3.392
   83DIO     H753635   1.842   7.224   3.212
   83DIO     H853636   1.998   7.362   3.440
   83DIO     H953637   2.035   7.629   3.189
   83DIO    H1053638   2.174   7.688   3.276
   83DIO    H1153639   2.233   7.552   3.069
   83DIO    H1253640   2.191   7.302   3.088
   83DIO    H1353641   2.044   7.398   3.075
   83DIO    H1453642   2.323   7.413   3.328
   83DIO    H1553643   2.400   7.401   3.171
   83DIO    H1653644   2.387   7.650   3.347
   83DIO    H1753645   2.526   7.548   3.317
   83DIO    H1853646   2.516   7.612   3.072
   83DIO    H1953647   2.386   7.726   3.111
   83DIO    H2053648   2.546   7.748   3.181
   84DIO     F153649  -0.769   8.033  10.681
   84DIO     C153650  -0.692   8.139  10.654
   84DIO     C253651  -0.548   8.127  10.666
   84DIO     C353652  -0.459   8.243  10.639
   84DIO     C453653  -0.524   8.369  10.597
   84DIO     C553654  -0.669   8.378  10.586
   84DIO     F253655  -0.724   8.494  10.544
   84DIO     C653656  -0.752   8.264  10.614
   84DIO     F353657  -0.886   8.274  10.604
   84DIO     C753658  -0.313   8.233  10.652
   84DIO     C853659  -0.235   8.332  10.730
   84DIO     C953660  -0.091   8.322  10.742
   84DIO    C1053661  -0.018   8.221  10.669
   84DIO    C1153662  -0.091   8.117  10.597
   84DIO    C1253663  -0.235   8.125  10.587
   84DIO     F453664  -0.300   8.031  10.515
   84DIO     O153665   0.114   8.203  10.703
   84DIO    C1353666   0.209   8.166  10.608
   84DIO     O253667   0.209   8.172  10.482
   84DIO    C1453668   0.338   8.130  10.667
   84DIO    C1553669   0.404   8.215  10.768
   84DIO     F553670   0.341   8.325  10.815
   84DIO    C1653671   0.535   8.185  10.823
   84DIO    C1753672   0.611   8.070  10.774
   84DIO    C1853673   0.542   7.975  10.688
   84DIO    C1953674   0.410   8.005  10.634
   84DIO     F653675   0.348   7.906  10.567
   84DIO    C2053676   0.751   8.043  10.822
   84DIO     O353677   0.821   8.160  10.865
   84DIO    C2153678   0.865   8.242  10.757
   84DIO    C2253679   0.954   8.162  10.662
   84DIO    C2353680   0.873   8.040  10.618
   84DIO     O453681   0.829   7.965  10.730
   84DIO    C2453682   1.086   8.117  10.726
   84DIO    C2553683   1.177   8.229  10.778
   84DIO    C2653684   1.215   8.331  10.673
   84DIO     H153685  -0.505   8.032  10.695
   84DIO     H253686  -0.464   8.454  10.567
   84DIO     H353687  -0.287   8.410  10.784
   84DIO     H453688  -0.036   8.390  10.806
   84DIO     H553689  -0.036   8.038  10.547
   84DIO     H653690   0.573   8.247  10.903
   84DIO     H753691   0.585   7.878  10.666
   84DIO     H853692   0.742   7.981  10.912
   84DIO     H953693   0.778   8.282  10.704
   84DIO    H1053694   0.917   8.328  10.799
   84DIO    H1153695   0.976   8.223  10.574
   84DIO    H1253696   0.934   7.974  10.555
   84DIO    H1353697   0.787   8.070  10.557
   84DIO    H1453698   1.066   8.048  10.810
   84DIO    H1553699   1.143   8.059  10.652
   84DIO    H1653700   1.130   8.280  10.863
   84DIO    H1753701   1.269   8.183  10.818
   84DIO    H1853702   1.259   8.283  10.585
   84DIO    H1953703   1.129   8.390  10.640
   84DIO    H2053704   1.289   8.401  10.713
   85DIO     F153705  -0.649   1.508  -0.924
   85DIO     C153706  -0.571   1.488  -0.816
   85DIO     C253707  -0.427   1.482  -0.832
   85DIO     C353708  -0.338   1.458  -0.716
   85DIO     C453709  -0.404   1.443  -0.584
   85DIO     C553710  -0.548   1.449  -0.571
   85DIO     F253711  -0.604   1.439  -0.448
   85DIO     C653712  -0.632   1.472  -0.686
   85DIO     F353713  -0.766   1.477  -0.672
   85DIO     C753714  -0.192   1.451  -0.730
   85DIO     C853715  -0.115   1.338  -0.673
   85DIO     C953716   0.030   1.331  -0.686
   85DIO    C1053717   0.102   1.440  -0.748
   85DIO    C1153718   0.030   1.549  -0.812
   85DIO    C1253719  -0.114   1.555  -0.801
   85DIO     F453720  -0.179   1.659  -0.856
   85DIO     O153721   0.235   1.416  -0.779
   85DIO    C1353722   0.329   1.518  -0.772
   85DIO     O253723   0.330   1.630  -0.715
   85DIO    C1453724   0.458   1.480  -0.830
   85DIO    C1553725   0.524   1.352  -0.795
   85DIO     F553726   0.462   1.263  -0.715
   85DIO    C1653727   0.655   1.315  -0.845
   85DIO    C1753728   0.731   1.407  -0.929
   85DIO    C1853729   0.662   1.526  -0.979
   85DIO    C1953730   0.531   1.562  -0.929
   85DIO     F653731   0.468   1.665  -0.991
   85DIO    C2053732   0.872   1.375  -0.974
   85DIO     O353733   0.941   1.287  -0.885
   85DIO    C2153734   0.985   1.351  -0.766
   85DIO    C2253735   1.074   1.471  -0.798
   85DIO    C2353736   0.993   1.562  -0.891
   85DIO     O453737   0.949   1.491  -1.006
   85DIO    C2453738   1.207   1.431  -0.867
   85DIO    C2553739   1.297   1.337  -0.787
   85DIO    C2653740   1.336   1.391  -0.649
   85DIO     H153741  -0.385   1.495  -0.931
   85DIO     H253742  -0.343   1.435  -0.494
   85DIO     H353743  -0.166   1.256  -0.624
   85DIO     H453744   0.085   1.245  -0.652
   85DIO     H553745   0.084   1.627  -0.863
   85DIO     H653746   0.693   1.216  -0.823
   85DIO     H753747   0.705   1.586  -1.058
   85DIO     H853748   0.862   1.320  -1.068
   85DIO     H953749   0.898   1.383  -0.707
   85DIO    H1053750   1.038   1.278  -0.705
   85DIO    H1153751   1.097   1.526  -0.706
   85DIO    H1253752   1.054   1.647  -0.925
   85DIO    H1353753   0.907   1.605  -0.838
   85DIO    H1453754   1.187   1.385  -0.964
   85DIO    H1553755   1.263   1.523  -0.888
   85DIO    H1653756   1.250   1.239  -0.776
   85DIO    H1753757   1.389   1.321  -0.845
   85DIO    H1853758   1.380   1.490  -0.657
   85DIO    H1953759   1.249   1.395  -0.583
   85DIO    H2053760   1.410   1.324  -0.603
   86DIO     F153761   2.258   2.329   3.764
   86DIO     C153762   2.335   2.433   3.729
   86DIO     C253763   2.480   2.422   3.742
   86DIO     C353764   2.568   2.535   3.707
   86DIO     C453765   2.503   2.658   3.656
   86DIO     C553766   2.359   2.667   3.644
   86DIO     F253767   2.303   2.779   3.594
   86DIO     C653768   2.275   2.555   3.680
   86DIO     F353769   2.141   2.565   3.669
   86DIO     C753770   2.715   2.527   3.720
   86DIO     C853771   2.792   2.631   3.791
   86DIO     C953772   2.937   2.622   3.804
   86DIO    C1053773   3.009   2.516   3.738
   86DIO    C1153774   2.937   2.407   3.673
   86DIO    C1253775   2.793   2.415   3.663
   86DIO     F453776   2.728   2.316   3.598
   86DIO     O153777   3.141   2.500   3.774
   86DIO    C1353778   3.236   2.457   3.681
   86DIO     O253779   3.237   2.453   3.555
   86DIO    C1453780   3.365   2.425   3.743
   86DIO    C1553781   3.431   2.518   3.837
   86DIO     F553782   3.369   2.630   3.877
   86DIO    C1653783   3.562   2.491   3.894
   86DIO    C1753784   3.638   2.373   3.854
   86DIO    C1853785   3.569   2.272   3.774
   86DIO    C1953786   3.437   2.298   3.719
   86DIO     F653787   3.375   2.195   3.658
   86DIO    C2053788   3.779   2.349   3.903
   86DIO     O353789   3.848   2.470   3.938
   86DIO    C2153790   3.892   2.543   3.824
   86DIO    C2253791   3.981   2.457   3.735
   86DIO    C2353792   3.900   2.332   3.699
   86DIO     O453793   3.856   2.265   3.817
   86DIO    C2453794   4.114   2.416   3.803
   86DIO    C2553795   4.204   2.532   3.847
   86DIO    C2653796   4.243   2.626   3.734
   86DIO     H153797   2.522   2.329   3.778
   86DIO     H253798   2.563   2.741   3.620
   86DIO     H353799   2.740   2.713   3.839
   86DIO     H453800   2.992   2.694   3.863
   86DIO     H553801   2.991   2.325   3.629
   86DIO     H653802   3.600   2.558   3.970
   86DIO     H753803   3.612   2.174   3.760
   86DIO     H853804   3.769   2.294   3.997
   86DIO     H953805   3.805   2.580   3.768
   86DIO    H1053806   3.945   2.632   3.860
   86DIO    H1153807   4.003   2.511   3.643
   86DIO    H1253808   3.961   2.262   3.642
   86DIO    H1353809   3.814   2.358   3.637
   86DIO    H1453810   4.094   2.354   3.891
   86DIO    H1553811   4.170   2.353   3.733
   86DIO    H1653812   4.157   2.589   3.927
   86DIO    H1753813   4.296   2.489   3.889
   86DIO    H1853814   4.287   2.572   3.650
   86DIO    H1953815   4.156   2.682   3.697
   86DIO    H2053816   4.316   2.699   3.769
   87DIO     F153817   4.884   4.410   9.280
   87DIO     C153818   4.961   4.518   9.304
   87DIO     C253819   5.106   4.501   9.309
   87DIO     C353820   5.194   4.616   9.338
   87DIO     C453821   5.129   4.748   9.358
   87DIO     C553822   4.985   4.761   9.352
   87DIO     F253823   4.929   4.883   9.367
   87DIO     C653824   4.901   4.647   9.325
   87DIO     F353825   4.767   4.661   9.321
   87DIO     C753826   5.341   4.602   9.345
   87DIO     C853827   5.418   4.655   9.459
   87DIO     C953828   5.563   4.641   9.466
   87DIO    C1053829   5.635   4.583   9.354
   87DIO    C1153830   5.563   4.524   9.243
   87DIO    C1253831   5.419   4.535   9.238
   87DIO     F453832   5.354   4.484   9.132
   87DIO     O153833   5.767   4.552   9.377
   87DIO    C1353834   5.862   4.563   9.275
   87DIO     O253835   5.863   4.624   9.166
   87DIO    C1453836   5.991   4.503   9.312
   87DIO    C1553837   6.057   4.534   9.441
   87DIO     F553838   5.995   4.610   9.532
   87DIO    C1653839   6.188   4.481   9.476
   87DIO    C1753840   6.264   4.401   9.380
   87DIO    C1853841   6.195   4.356   9.260
   87DIO    C1953842   6.063   4.407   9.226
   87DIO     F653843   6.001   4.350   9.121
   87DIO    C2053844   6.405   4.356   9.410
   87DIO     O353845   6.474   4.441   9.502
   87DIO    C2153846   6.518   4.562   9.442
   87DIO    C2253847   6.607   4.534   9.321
   87DIO    C2353848   6.526   4.446   9.227
   87DIO     O453849   6.482   4.328   9.293
   87DIO    C2453850   6.740   4.465   9.359
   87DIO    C2553851   6.830   4.541   9.456
   87DIO    C2653852   6.869   4.680   9.408
   87DIO     H153853   5.148   4.403   9.292
   87DIO     H253854   5.189   4.837   9.369
   87DIO     H353855   5.366   4.700   9.543
   87DIO     H453856   5.618   4.672   9.554
   87DIO     H553857   5.617   4.476   9.163
   87DIO     H653858   6.226   4.500   9.575
   87DIO     H753859   6.238   4.279   9.197
   87DIO     H853860   6.395   4.259   9.462
   87DIO     H953861   6.431   4.622   9.413
   87DIO    H1053862   6.571   4.620   9.519
   87DIO    H1153863   6.629   4.629   9.271
   87DIO    H1253864   6.587   4.415   9.141
   87DIO    H1353865   6.440   4.500   9.186
   87DIO    H1453866   6.720   4.366   9.402
   87DIO    H1553867   6.796   4.447   9.266
   87DIO    H1653868   6.783   4.548   9.554
   87DIO    H1753869   6.922   4.482   9.470
   87DIO    H1853870   6.913   4.677   9.308
   87DIO    H1953871   6.782   4.747   9.406
   87DIO    H2053872   6.942   4.724   9.476
   88DIO     F153873   1.733   1.074   3.484
   88DIO     C153874   1.811   1.059   3.593
   88DIO     C253875   1.955   1.053   3.577
   88DIO     C353876   2.044   1.035   3.694
   88DIO     C453877   1.978   1.026   3.827
   88DIO     C553878   1.834   1.033   3.840
   88DIO     F253879   1.779   1.029   3.963
   88DIO     C653880   1.750   1.050   3.724
   88DIO     F353881   1.616   1.055   3.737
   88DIO     C753882   2.190   1.027   3.680
   88DIO     C853883   2.267   0.917   3.743
   88DIO     C953884   2.412   0.909   3.730
   88DIO    C1053885   2.485   1.015   3.663
   88DIO    C1153886   2.412   1.121   3.594
   88DIO    C1253887   2.268   1.127   3.605
   88DIO     F453888   2.203   1.228   3.545
   88DIO     O153889   2.617   0.990   3.633
   88DIO    C1353890   2.711   1.092   3.635
   88DIO     O253891   2.712   1.207   3.687
   88DIO    C1453892   2.840   1.051   3.579
   88DIO    C1553893   2.907   0.925   3.621
   88DIO     F553894   2.844   0.840   3.705
   88DIO    C1653895   3.037   0.886   3.572
   88DIO    C1753896   3.113   0.974   3.484
   88DIO    C1853897   3.044   1.090   3.428
   88DIO    C1953898   2.913   1.128   3.476
   88DIO     F653899   2.850   1.228   3.410
   88DIO    C2053900   3.254   0.939   3.441
   88DIO     O353901   3.324   0.855   3.533
   88DIO    C2153902   3.367   0.926   3.649
   88DIO    C2253903   3.456   1.044   3.611
   88DIO    C2353904   3.375   1.130   3.515
   88DIO     O453905   3.331   1.054   3.403
   88DIO    C2453906   3.589   1.001   3.545
   88DIO    C2553907   3.680   0.910   3.629
   88DIO    C2653908   3.718   0.970   3.764
   88DIO     H153909   1.998   1.061   3.478
   88DIO     H253910   2.039   1.022   3.917
   88DIO     H353911   2.216   0.837   3.795
   88DIO     H453912   2.467   0.824   3.768
   88DIO     H553913   2.466   1.197   3.540
   88DIO     H653914   3.076   0.788   3.599
   88DIO     H753915   3.087   1.146   3.346
   88DIO     H853916   3.244   0.880   3.349
   88DIO     H953917   3.281   0.960   3.707
   88DIO    H1053918   3.420   0.855   3.714
   88DIO    H1153919   3.479   1.102   3.701
   88DIO    H1253920   3.437   1.213   3.477
   88DIO    H1353921   3.289   1.176   3.565
   88DIO    H1453922   3.569   0.949   3.450
   88DIO    H1553923   3.645   1.091   3.519
   88DIO    H1653924   3.632   0.813   3.645
   88DIO    H1753925   3.771   0.891   3.572
   88DIO    H1853926   3.762   1.070   3.752
   88DIO    H1953927   3.632   0.978   3.830
   88DIO    H2053928   3.792   0.906   3.814
   89DIO     F153929  -0.295   4.875  -0.755
   89DIO     C153930  -0.217   4.878  -0.645
   89DIO     C253931  -0.073   4.869  -0.659
   89DIO     C353932   0.016   4.871  -0.541
   89DIO     C453933  -0.050   4.885  -0.409
   89DIO     C553934  -0.194   4.894  -0.397
   89DIO     F253935  -0.249   4.910  -0.275
   89DIO     C653936  -0.278   4.891  -0.515
   89DIO     F353937  -0.411   4.898  -0.502
   89DIO     C753938   0.162   4.861  -0.553
   89DIO     C853939   0.239   4.763  -0.473
   89DIO     C953940   0.384   4.753  -0.485
   89DIO    C1053941   0.457   4.847  -0.569
   89DIO    C1153942   0.384   4.939  -0.654
   89DIO    C1253943   0.240   4.947  -0.644
   89DIO     F453944   0.175   5.037  -0.721
   89DIO     O153945   0.589   4.817  -0.593
   89DIO    C1353946   0.683   4.918  -0.609
   89DIO     O253947   0.684   5.039  -0.577
   89DIO    C1453948   0.812   4.867  -0.657
   89DIO    C1553949   0.879   4.751  -0.595
   89DIO     F553950   0.816   4.681  -0.498
   89DIO    C1653951   1.010   4.704  -0.637
   89DIO    C1753952   1.085   4.776  -0.738
   89DIO    C1853953   1.017   4.881  -0.813
   89DIO    C1953954   0.885   4.926  -0.772
   89DIO     F653955   0.822   5.014  -0.854
   89DIO    C2053956   1.226   4.735  -0.775
   89DIO     O353957   1.296   4.667  -0.669
   89DIO    C2153958   1.339   4.756  -0.567
   89DIO    C2253959   1.428   4.866  -0.624
   89DIO    C2353960   1.348   4.935  -0.734
   89DIO     O453961   1.303   4.841  -0.831
   89DIO    C2453962   1.561   4.813  -0.682
   89DIO    C2553963   1.652   4.738  -0.584
   89DIO    C2653964   1.690   4.819  -0.461
   89DIO     H153965  -0.030   4.861  -0.759
   89DIO     H253966   0.011   4.896  -0.319
   89DIO     H353967   0.188   4.693  -0.408
   89DIO     H453968   0.439   4.676  -0.433
   89DIO     H553969   0.439   5.005  -0.721
   89DIO     H653970   1.048   4.612  -0.593
   89DIO     H753971   1.059   4.922  -0.903
   89DIO     H853972   1.216   4.660  -0.855
   89DIO     H953973   1.253   4.799  -0.516
   89DIO    H1053974   1.392   4.697  -0.492
   89DIO    H1153975   1.451   4.939  -0.546
   89DIO    H1253976   1.409   5.010  -0.785
   89DIO    H1353977   1.261   4.988  -0.691
   89DIO    H1453978   1.541   4.746  -0.767
   89DIO    H1553979   1.618   4.897  -0.723
   89DIO    H1653980   1.604   4.644  -0.552
   89DIO    H1753981   1.744   4.709  -0.637
   89DIO    H1853982   1.734   4.915  -0.490
   89DIO    H1953983   1.604   4.838  -0.397
   89DIO    H2053984   1.764   4.765  -0.402
   90DIO     F153985   6.095   2.287   4.416
   90DIO     C153986   6.172   2.283   4.526
   90DIO     C253987   6.316   2.275   4.511
   90DIO     C353988   6.405   2.268   4.630
   90DIO     C453989   6.340   2.273   4.763
   90DIO     C553990   6.195   2.281   4.775
   90DIO     F253991   6.140   2.289   4.897
   90DIO     C653992   6.112   2.286   4.657
   90DIO     F353993   5.978   2.293   4.670
   90DIO     C753994   6.551   2.259   4.617
   90DIO     C853995   6.629   2.156   4.690
   90DIO     C953996   6.773   2.147   4.677
   90DIO    C1053997   6.846   2.246   4.600
   90DIO    C1153998   6.773   2.344   4.521
   90DIO    C1253999   6.629   2.351   4.532
   90DIO     F454000   6.564   2.447   4.462
   90DIO     O154001   6.978   2.218   4.573
   90DIO    C1354002   7.073   2.320   4.565
   90DIO     O254003   7.073   2.439   4.606
   90DIO    C1454004   7.202   2.273   4.514
   90DIO    C1554005   7.268   2.152   4.567
   90DIO     F554006   7.205   2.076   4.659
   90DIO    C1654007   7.399   2.108   4.522
   90DIO    C1754008   7.475   2.187   4.426
   90DIO    C1854009   7.406   2.297   4.359
   90DIO    C1954010   7.274   2.340   4.403
   90DIO     F654011   7.212   2.433   4.328
   90DIO    C2054012   7.615   2.149   4.387
   90DIO     O354013   7.685   2.074   4.487
   90DIO    C2154014   7.729   2.155   4.595
   90DIO    C2254015   7.818   2.269   4.546
   90DIO    C2354016   7.737   2.346   4.442
   90DIO     O454017   7.693   2.259   4.338
   90DIO    C2454018   7.950   2.220   4.484
   90DIO    C2554019   8.041   2.138   4.577
   90DIO    C2654020   8.079   2.211   4.705
   90DIO     H154021   6.359   2.274   4.412
   90DIO     H254022   6.400   2.278   4.852
   90DIO     H354023   6.577   2.082   4.749
   90DIO     H454024   6.828   2.066   4.724
   90DIO     H554025   6.828   2.415   4.460
   90DIO     H654026   7.437   2.014   4.559
   90DIO     H754027   7.449   2.345   4.272
   90DIO     H854028   7.606   2.080   4.302
   90DIO     H954029   7.642   2.195   4.649
   90DIO    H1054030   7.781   2.091   4.666
   90DIO    H1154031   7.840   2.336   4.630
   90DIO    H1254032   7.798   2.424   4.396
   90DIO    H1354033   7.651   2.396   4.488
   90DIO    H1454034   7.930   2.159   4.395
   90DIO    H1554035   8.007   2.307   4.450
   90DIO    H1654036   7.994   2.043   4.602
   90DIO    H1754037   8.133   2.114   4.522
   90DIO    H1854038   8.123   2.309   4.683
   90DIO    H1954039   7.993   2.226   4.771
   90DIO    H2054040   8.153   2.152   4.761
   91DIO     F154041  -0.792   5.141   5.574
   91DIO     C154042  -0.715   5.142   5.464
   91DIO     C254043  -0.571   5.150   5.478
   91DIO     C354044  -0.482   5.153   5.360
   91DIO     C454045  -0.547   5.145   5.227
   91DIO     C554046  -0.692   5.137   5.215
   91DIO     F254047  -0.747   5.125   5.093
   91DIO     C654048  -0.775   5.134   5.333
   91DIO     F354049  -0.909   5.128   5.320
   91DIO     C754050  -0.335   5.163   5.373
   91DIO     C854051  -0.258   5.264   5.297
   91DIO     C954052  -0.114   5.273   5.309
   91DIO    C1054053  -0.041   5.176   5.389
   91DIO    C1154054  -0.114   5.081   5.470
   91DIO    C1254055  -0.258   5.073   5.460
   91DIO     F454056  -0.323   4.980   5.533
   91DIO     O154057   0.091   5.206   5.415
   91DIO    C1354058   0.186   5.104   5.426
   91DIO     O254059   0.187   4.984   5.389
   91DIO    C1454060   0.315   5.152   5.476
   91DIO    C1554061   0.381   5.271   5.419
   91DIO     F554062   0.318   5.345   5.325
   91DIO    C1654063   0.512   5.317   5.463
   91DIO    C1754064   0.588   5.240   5.561
   91DIO    C1854065   0.519   5.133   5.631
   91DIO    C1954066   0.387   5.088   5.588
   91DIO     F654067   0.325   4.998   5.667
   91DIO    C2054068   0.728   5.280   5.599
   91DIO     O354069   0.798   5.352   5.497
   91DIO    C2154070   0.842   5.267   5.391
   91DIO    C2254071   0.931   5.155   5.443
   91DIO    C2354072   0.850   5.081   5.550
   91DIO     O454073   0.806   5.171   5.651
   91DIO    C2454074   1.063   5.206   5.504
   91DIO    C2554075   1.154   5.285   5.408
   91DIO    C2654076   1.193   5.208   5.283
   91DIO     H154077  -0.528   5.154   5.578
   91DIO     H254078  -0.487   5.137   5.138
   91DIO     H354079  -0.310   5.336   5.235
   91DIO     H454080  -0.059   5.353   5.260
   91DIO     H554081  -0.059   5.012   5.534
   91DIO     H654082   0.550   5.410   5.423
   91DIO     H754083   0.562   5.087   5.720
   91DIO     H854084   0.719   5.351   5.682
   91DIO     H954085   0.755   5.226   5.338
   91DIO    H1054086   0.895   5.329   5.318
   91DIO    H1154087   0.953   5.085   5.362
   91DIO    H1254088   0.911   5.004   5.598
   91DIO    H1354089   0.764   5.030   5.506
   91DIO    H1454090   1.044   5.269   5.591
   91DIO    H1554091   1.120   5.119   5.541
   91DIO    H1654092   1.107   5.380   5.381
   91DIO    H1754093   1.246   5.311   5.463
   91DIO    H1854094   1.236   5.111   5.307
   91DIO    H1954095   1.106   5.192   5.218
   91DIO    H2054096   1.266   5.265   5.225
   92DIO     F154097   5.456   9.135   1.211
   92DIO     C154098   5.533   9.245   1.203
   92DIO     C254099   5.677   9.231   1.213
   92DIO     C354100   5.766   9.349   1.207
   92DIO     C454101   5.701   9.481   1.189
   92DIO     C554102   5.556   9.492   1.179
   92DIO     F254103   5.501   9.613   1.158
   92DIO     C654104   5.473   9.375   1.186
   92DIO     F354105   5.339   9.386   1.178
   92DIO     C754106   5.912   9.337   1.218
   92DIO     C854107   5.990   9.421   1.313
   92DIO     C954108   6.134   9.409   1.323
   92DIO    C1054109   6.207   9.322   1.232
   92DIO    C1154110   6.134   9.233   1.143
   92DIO    C1254111   5.990   9.243   1.135
   92DIO     F454112   5.925   9.163   1.048
   92DIO     O154113   6.339   9.298   1.263
   92DIO    C1354114   6.434   9.280   1.163
   92DIO     O254115   6.434   9.307   1.040
   92DIO    C1454116   6.563   9.233   1.215
   92DIO    C1554117   6.629   9.299   1.329
   92DIO     F554118   6.566   9.399   1.395
   92DIO    C1654119   6.760   9.259   1.378
   92DIO    C1754120   6.836   9.155   1.310
   92DIO    C1854121   6.767   9.077   1.207
   92DIO    C1954122   6.635   9.116   1.160
   92DIO     F654123   6.573   9.031   1.076
   92DIO    C2054124   6.976   9.120   1.352
   92DIO     O354125   7.046   9.228   1.415
   92DIO    C2154126   7.090   9.327   1.323
   92DIO    C2254127   7.179   9.266   1.215
   92DIO    C2354128   7.098   9.154   1.150
   92DIO     O454129   7.054   9.060   1.247
   92DIO    C2454130   7.311   9.210   1.271
   92DIO    C2554131   7.402   9.311   1.342
   92DIO    C2654132   7.440   9.430   1.256
   92DIO     H154133   5.720   9.132   1.225
   92DIO     H254134   5.761   9.569   1.174
   92DIO     H354135   5.938   9.488   1.380
   92DIO     H454136   6.189   9.464   1.398
   92DIO     H554137   6.189   9.165   1.080
   92DIO     H654138   6.798   9.306   1.468
   92DIO     H754139   6.810   8.985   1.169
   92DIO     H854140   6.967   9.043   1.429
   92DIO     H954141   7.003   9.376   1.278
   92DIO    H1054142   7.142   9.404   1.379
   92DIO    H1154143   7.201   9.342   1.139
   92DIO    H1254144   7.159   9.100   1.077
   92DIO    H1354145   7.012   9.194   1.095
   92DIO    H1454146   7.291   9.127   1.340
   92DIO    H1554147   7.368   9.166   1.187
   92DIO    H1654148   7.355   9.346   1.434
   92DIO    H1754149   7.494   9.259   1.372
   92DIO    H1854150   7.484   9.398   1.161
   92DIO    H1954151   7.354   9.494   1.235
   92DIO    H2054152   7.514   9.492   1.309
   93DIO     F154153  -0.349   8.634   0.265
   93DIO     C154154  -0.272   8.652   0.374
   93DIO     C254155  -0.128   8.641   0.361
   93DIO     C354156  -0.039   8.658   0.478
   93DIO     C454157  -0.104   8.690   0.607
   93DIO     C554158  -0.249   8.700   0.617
   93DIO     F254159  -0.304   8.733   0.736
   93DIO     C654160  -0.332   8.682   0.501
   93DIO     F354161  -0.466   8.691   0.512
   93DIO     C754162   0.108   8.647   0.467
   93DIO     C854163   0.185   8.560   0.559
   93DIO     C954164   0.329   8.549   0.549
   93DIO    C1054165   0.402   8.631   0.454
   93DIO    C1154166   0.329   8.711   0.357
   93DIO    C1254167   0.185   8.720   0.365
   93DIO     F454168   0.120   8.799   0.277
   93DIO     O154169   0.534   8.598   0.433
   93DIO    C1354170   0.629   8.696   0.405
   93DIO     O254171   0.630   8.821   0.420
   93DIO    C1454172   0.758   8.640   0.363
   93DIO    C1554173   0.824   8.532   0.440
   93DIO     F554174   0.761   8.476   0.546
   93DIO    C1654175   0.955   8.480   0.405
   93DIO    C1754176   1.031   8.538   0.295
   93DIO    C1854177   0.962   8.632   0.207
   93DIO    C1954178   0.830   8.683   0.242
   93DIO     F654179   0.768   8.758   0.149
   93DIO    C2054180   1.171   8.492   0.264
   93DIO     O354181   1.241   8.440   0.378
   93DIO    C2154182   1.285   8.541   0.467
   93DIO    C2254183   1.374   8.642   0.396
   93DIO    C2354184   1.293   8.697   0.278
   93DIO     O454185   1.249   8.590   0.194
   93DIO    C2454186   1.506   8.582   0.346
   93DIO    C2554187   1.597   8.521   0.453
   93DIO    C2654188   1.636   8.618   0.564
   93DIO     H154189  -0.085   8.620   0.264
   93DIO     H254190  -0.044   8.713   0.694
   93DIO     H354191   0.133   8.500   0.633
   93DIO     H454192   0.384   8.480   0.611
   93DIO     H554193   0.384   8.767   0.282
   93DIO     H654194   0.993   8.395   0.461
   93DIO     H754195   1.005   8.661   0.112
   93DIO     H854196   1.162   8.408   0.195
   93DIO     H954197   1.198   8.591   0.512
   93DIO    H1054198   1.338   8.492   0.550
   93DIO    H1154199   1.396   8.725   0.464
   93DIO    H1254200   1.354   8.764   0.217
   93DIO    H1354201   1.207   8.755   0.313
   93DIO    H1454202   1.487   8.504   0.270
   93DIO    H1554203   1.563   8.660   0.294
   93DIO    H1654204   1.550   8.432   0.497
   93DIO    H1754205   1.689   8.485   0.404
   93DIO    H1854206   1.679   8.709   0.522
   93DIO    H1954207   1.549   8.645   0.625
   93DIO    H2054208   1.709   8.572   0.630
   94DIO     F154209   0.790  -0.303   3.671
   94DIO     C154210   0.867  -0.222   3.746
   94DIO     C254211   1.012  -0.239   3.742
   94DIO     C354212   1.100  -0.154   3.825
   94DIO     C454213   1.035  -0.051   3.908
   94DIO     C554214   0.891  -0.036   3.910
   94DIO     F254215   0.835   0.062   3.985
   94DIO     C654216   0.807  -0.121   3.829
   94DIO     F354217   0.673  -0.107   3.832
   94DIO     C754218   1.247  -0.170   3.823
   94DIO     C854219   1.324  -0.182   3.949
   94DIO     C954220   1.469  -0.197   3.947
   94DIO    C1054221   1.541  -0.190   3.822
   94DIO    C1154222   1.469  -0.186   3.696
   94DIO    C1254223   1.325  -0.173   3.698
   94DIO     F454224   1.260  -0.164   3.580
   94DIO     O154225   1.673  -0.229   3.826
   94DIO    C1354226   1.768  -0.169   3.743
   94DIO     O254227   1.769  -0.060   3.680
   94DIO    C1454228   1.897  -0.238   3.745
   94DIO    C1554229   1.963  -0.277   3.871
   94DIO     F554230   1.901  -0.258   3.989
   94DIO    C1654231   2.094  -0.340   3.875
   94DIO    C1754232   2.170  -0.361   3.752
   94DIO    C1854233   2.101  -0.339   3.625
   94DIO    C1954234   1.969  -0.278   3.622
   94DIO     F654235   1.907  -0.274   3.502
   94DIO    C2054236   2.311  -0.416   3.755
   94DIO     O354237   2.380  -0.389   3.877
   94DIO    C2154238   2.424  -0.254   3.887
   94DIO    C2254239   2.513  -0.216   3.769
   94DIO    C2354240   2.432  -0.245   3.642
   94DIO     O454241   2.388  -0.380   3.640
   94DIO    C2454242   2.646  -0.295   3.766
   94DIO    C2554243   2.736  -0.278   3.888
   94DIO    C2654244   2.775  -0.134   3.917
   94DIO     H154245   1.054  -0.315   3.677
   94DIO     H254246   1.095   0.021   3.963
   94DIO     H354247   1.272  -0.186   4.044
   94DIO     H454248   1.524  -0.215   4.039
   94DIO     H554249   1.523  -0.186   3.603
   94DIO     H654250   2.132  -0.374   3.971
   94DIO     H754251   2.144  -0.373   3.532
   94DIO     H854252   2.301  -0.525   3.751
   94DIO     H954253   2.337  -0.187   3.893
   94DIO    H1054254   2.477  -0.242   3.982
   94DIO    H1154255   2.535  -0.109   3.773
   94DIO    H1254256   2.493  -0.228   3.553
   94DIO    H1354257   2.346  -0.177   3.635
   94DIO    H1454258   2.626  -0.402   3.753
   94DIO    H1554259   2.702  -0.264   3.677
   94DIO    H1654260   2.689  -0.322   3.977
   94DIO    H1754261   2.828  -0.336   3.871
   94DIO    H1854262   2.819  -0.087   3.829
   94DIO    H1954263   2.688  -0.075   3.949
   94DIO    H2054264   2.848  -0.131   3.998
   95DIO     F154265  -0.256   2.163   3.772
   95DIO     C154266  -0.178   2.055   3.757
   95DIO     C254267  -0.034   2.070   3.750
   95DIO     C354268   0.054   1.953   3.731
   95DIO     C454269  -0.011   1.821   3.722
   95DIO     C554270  -0.155   1.808   3.729
   95DIO     F254271  -0.211   1.685   3.724
   95DIO     C654272  -0.239   1.924   3.747
   95DIO     F354273  -0.373   1.911   3.752
   95DIO     C754274   0.201   1.967   3.723
   95DIO     C854275   0.278   1.905   3.613
   95DIO     C954276   0.423   1.919   3.606
   95DIO    C1054277   0.495   1.985   3.712
   95DIO    C1154278   0.423   2.053   3.818
   95DIO    C1254279   0.279   2.042   3.824
   95DIO     F454280   0.214   2.102   3.926
   95DIO     O154281   0.627   2.015   3.687
   95DIO    C1354282   0.722   2.012   3.789
   95DIO     O254283   0.723   1.959   3.903
   95DIO    C1454284   0.851   2.068   3.748
   95DIO    C1554285   0.917   2.028   3.622
   95DIO     F554286   0.855   1.944   3.537
   95DIO    C1654287   1.048   2.077   3.583
   95DIO    C1754288   1.124   2.164   3.672
   95DIO    C1854289   1.055   2.219   3.788
   95DIO    C1954290   0.924   2.171   3.826
   95DIO     F654291   0.861   2.237   3.926
   95DIO    C2054292   1.265   2.207   3.638
   95DIO     O354293   1.334   2.115   3.553
   95DIO    C2154294   1.378   1.999   3.623
   95DIO    C2254295   1.467   2.036   3.741
   95DIO    C2354296   1.386   2.132   3.828
   95DIO     O454297   1.342   2.244   3.753
   95DIO    C2454298   1.600   2.103   3.698
   95DIO    C2554299   1.690   2.019   3.608
   95DIO    C2654300   1.729   1.884   3.667
   95DIO     H154301   0.008   2.169   3.760
   95DIO     H254302   0.050   1.731   3.718
   95DIO     H354303   0.226   1.854   3.533
   95DIO     H454304   0.478   1.881   3.521
   95DIO     H554305   0.477   2.107   3.894
   95DIO     H654306   1.086   2.050   3.485
   95DIO     H754307   1.098   2.301   3.845
   95DIO     H854308   1.255   2.299   3.579
   95DIO     H954309   1.291   1.941   3.656
   95DIO    H1054310   1.431   1.935   3.551
   95DIO    H1154311   1.489   1.946   3.799
   95DIO    H1254312   1.447   2.170   3.911
   95DIO    H1354313   1.300   2.081   3.873
   95DIO    H1454314   1.580   2.198   3.647
   95DIO    H1554315   1.656   2.128   3.789
   95DIO    H1654316   1.643   2.004   3.510
   95DIO    H1754317   1.782   2.076   3.589
   95DIO    H1854318   1.773   1.896   3.766
   95DIO    H1954319   1.642   1.818   3.674
   95DIO    H2054320   1.802   1.835   3.602
   96DIO     F154321   5.079   4.647   2.148
   96DIO     C154322   5.157   4.696   2.049
   96DIO     C254323   5.301   4.697   2.066
   96DIO     C354324   5.390   4.752   1.961
   96DIO     C454325   5.324   4.803   1.839
   96DIO     C554326   5.180   4.800   1.824
   96DIO     F254327   5.125   4.844   1.709
   96DIO     C654328   5.096   4.747   1.929
   96DIO     F354329   4.963   4.746   1.914
   96DIO     C754330   5.536   4.755   1.977
   96DIO     C854331   5.613   4.879   1.953
   96DIO     C954332   5.758   4.882   1.968
   96DIO    C1054333   5.831   4.760   1.997
   96DIO    C1154334   5.758   4.638   2.029
   96DIO    C1254335   5.614   4.636   2.016
   96DIO     F454336   5.549   4.520   2.041
   96DIO     O154337   5.963   4.774   2.034
   96DIO    C1354338   6.057   4.678   1.999
   96DIO     O254339   6.058   4.586   1.913
   96DIO    C1454340   6.187   4.700   2.065
   96DIO    C1554341   6.253   4.832   2.066
   96DIO     F554342   6.190   4.939   2.014
   96DIO    C1654343   6.384   4.853   2.125
   96DIO    C1754344   6.459   4.742   2.180
   96DIO    C1854345   6.391   4.614   2.196
   96DIO    C1954346   6.259   4.593   2.138
   96DIO     F654347   6.197   4.477   2.169
   96DIO    C2054348   6.600   4.760   2.232
   96DIO     O354349   6.670   4.870   2.171
   96DIO    C2154350   6.714   4.840   2.039
   96DIO    C2254351   6.802   4.716   2.037
   96DIO    C2354352   6.722   4.603   2.100
   96DIO     O454353   6.677   4.640   2.231
   96DIO    C2454354   6.935   4.736   2.114
   96DIO    C2554355   7.026   4.848   2.063
   96DIO    C2654356   7.064   4.835   1.916
   96DIO     H154357   5.344   4.657   2.158
   96DIO     H254358   5.385   4.835   1.755
   96DIO     H354359   5.562   4.971   1.929
   96DIO     H454360   5.813   4.975   1.959
   96DIO     H554361   5.813   4.548   2.056
   96DIO     H654362   6.422   4.955   2.131
   96DIO     H754363   6.434   4.534   2.255
   96DIO     H854364   6.590   4.787   2.338
   96DIO     H954365   6.627   4.827   1.974
   96DIO    H1054366   6.766   4.928   2.001
   96DIO    H1154367   6.825   4.690   1.933
   96DIO    H1254368   6.783   4.513   2.110
   96DIO    H1354369   6.636   4.577   2.038
   96DIO    H1454370   6.915   4.754   2.220
   96DIO    H1554371   6.992   4.642   2.109
   96DIO    H1654372   6.979   4.946   2.079
   96DIO    H1754373   7.118   4.848   2.123
   96DIO    H1854374   7.108   4.737   1.896
   96DIO    H1954375   6.978   4.849   1.851
   96DIO    H2054376   7.138   4.911   1.890
   97DIO     F154377   0.674   8.932   7.007
   97DIO     C154378   0.751   8.898   7.112
   97DIO     C254379   0.896   8.895   7.095
   97DIO     C354380   0.984   8.856   7.207
   97DIO     C454381   0.919   8.824   7.336
   97DIO     C554382   0.775   8.828   7.350
   97DIO     F254383   0.719   8.803   7.470
   97DIO     C654384   0.691   8.866   7.238
   97DIO     F354385   0.557   8.869   7.252
   97DIO     C754386   1.131   8.851   7.192
   97DIO     C854387   1.208   8.731   7.234
   97DIO     C954388   1.353   8.726   7.220
   97DIO    C1054389   1.425   8.843   7.173
   97DIO    C1154390   1.353   8.959   7.123
   97DIO    C1254391   1.209   8.963   7.135
   97DIO     F454392   1.144   9.073   7.094
   97DIO     O154393   1.557   8.823   7.139
   97DIO    C1354394   1.652   8.923   7.159
   97DIO     O254395   1.653   9.027   7.231
   97DIO    C1454396   1.781   8.892   7.097
   97DIO    C1554397   1.847   8.761   7.115
   97DIO     F554398   1.785   8.663   7.183
   97DIO    C1654399   1.978   8.731   7.060
   97DIO    C1754400   2.054   8.834   6.989
   97DIO    C1854401   1.985   8.957   6.955
   97DIO    C1954402   1.853   8.987   7.009
   97DIO     F654403   1.791   9.097   6.961
   97DIO    C2054404   2.195   8.807   6.941
   97DIO     O354405   2.264   8.708   7.017
   97DIO    C2154406   2.308   8.757   7.143
   97DIO    C2254407   2.397   8.880   7.127
   97DIO    C2354408   2.316   8.982   7.047
   97DIO     O454409   2.272   8.927   6.924
   97DIO    C2454410   2.530   8.849   7.054
   97DIO    C2554411   2.620   8.745   7.121
   97DIO    C2654412   2.659   8.780   7.264
   97DIO     H154413   0.938   8.921   6.999
   97DIO     H254414   0.979   8.804   7.424
   97DIO     H354415   1.156   8.644   7.271
   97DIO     H454416   1.408   8.636   7.242
   97DIO     H554417   1.407   9.043   7.084
   97DIO     H654418   2.016   8.630   7.070
   97DIO     H754419   2.028   9.027   6.884
   97DIO     H854420   2.185   8.765   6.840
   97DIO     H954421   2.221   8.780   7.206
   97DIO    H1054422   2.361   8.676   7.194
   97DIO    H1154423   2.419   8.922   7.226
   97DIO    H1254424   2.377   9.070   7.024
   97DIO    H1354425   2.230   9.018   7.105
   97DIO    H1454426   2.510   8.815   6.952
   97DIO    H1554427   2.586   8.943   7.045
   97DIO    H1654428   2.573   8.647   7.119
   97DIO    H1754429   2.712   8.736   7.061
   97DIO    H1854430   2.703   8.880   7.270
   97DIO    H1954431   2.572   8.776   7.331
   97DIO    H2054432   2.732   8.709   7.302
   98DIO     F154433  -0.173   8.709   9.223
   98DIO     C154434  -0.095   8.761   9.320
   98DIO     C254435   0.049   8.747   9.311
   98DIO     C354436   0.138   8.801   9.417
   98DIO     C454437   0.072   8.872   9.529
   98DIO     C554438  -0.072   8.885   9.535
   98DIO     F254439  -0.127   8.954   9.637
   98DIO     C654440  -0.156   8.831   9.431
   98DIO     F354441  -0.289   8.843   9.439
   98DIO     C754442   0.284   8.786   9.410
   98DIO     C854443   0.361   8.734   9.525
   98DIO     C954444   0.506   8.720   9.519
   98DIO    C1054445   0.579   8.767   9.402
   98DIO    C1154446   0.506   8.812   9.285
   98DIO    C1254447   0.362   8.823   9.290
   98DIO     F454448   0.297   8.870   9.182
   98DIO     O154449   0.711   8.729   9.394
   98DIO    C1354450   0.805   8.813   9.335
   98DIO     O254451   0.806   8.936   9.310
   98DIO    C1454452   0.935   8.746   9.314
   98DIO    C1554453   1.001   8.669   9.422
   98DIO     F554454   0.938   8.650   9.540
   98DIO    C1654455   1.132   8.608   9.405
   98DIO    C1754456   1.207   8.628   9.282
   98DIO    C1854457   1.139   8.689   9.169
   98DIO    C1954458   1.007   8.748   9.185
   98DIO     F654459   0.945   8.790   9.073
   98DIO    C2054460   1.348   8.575   9.267
   98DIO     O354461   1.418   8.561   9.392
   98DIO    C2154462   1.462   8.686   9.444
   98DIO    C2254463   1.550   8.759   9.344
   98DIO    C2354464   1.470   8.773   9.215
   98DIO     O454465   1.425   8.645   9.170
   98DIO    C2454466   1.683   8.686   9.316
   98DIO    C2554467   1.774   8.662   9.437
   98DIO    C2654468   1.812   8.790   9.511
   98DIO     H154469   0.092   8.695   9.226
   98DIO     H254470   0.133   8.922   9.604
   98DIO     H354471   0.310   8.701   9.614
   98DIO     H454472   0.561   8.674   9.600
   98DIO     H554473   0.561   8.841   9.196
   98DIO     H654474   1.170   8.546   9.485
   98DIO     H754475   1.182   8.686   9.069
   98DIO     H854476   1.338   8.473   9.229
   98DIO     H954477   1.375   8.748   9.471
   98DIO    H1054478   1.514   8.667   9.538
   98DIO    H1154479   1.573   8.860   9.382
   98DIO    H1254480   1.531   8.817   9.136
   98DIO    H1354481   1.384   8.839   9.230
   98DIO    H1454482   1.663   8.588   9.269
   98DIO    H1554483   1.740   8.744   9.242
   98DIO    H1654484   1.727   8.593   9.507
   98DIO    H1754485   1.866   8.613   9.402
   98DIO    H1854486   1.856   8.863   9.442
   98DIO    H1954487   1.726   8.835   9.560
   98DIO    H2054488   1.886   8.767   9.588
   99DIO     F154489   5.077   9.725  -0.388
   99DIO     C154490   5.155   9.739  -0.279
   99DIO     C254491   5.299   9.729  -0.293
   99DIO     C354492   5.388   9.741  -0.175
   99DIO     C454493   5.322   9.767  -0.045
   99DIO     C554494   5.178   9.777  -0.034
   99DIO     F254495   5.123   9.805   0.086
   99DIO     C654496   5.094   9.764  -0.151
   99DIO     F354497   4.961   9.772  -0.139
   99DIO     C754498   5.534   9.730  -0.186
   99DIO     C854499   5.611   9.640  -0.097
   99DIO     C954500   5.756   9.629  -0.108
   99DIO    C1054501   5.829   9.715  -0.200
   99DIO    C1154502   5.756   9.799  -0.294
   99DIO    C1254503   5.612   9.807  -0.285
   99DIO     F454504   5.547   9.890  -0.370
   99DIO     O154505   5.961   9.682  -0.222
   99DIO    C1354506   6.055   9.782  -0.247
   99DIO     O254507   6.056   9.906  -0.226
   99DIO    C1454508   6.185   9.727  -0.290
   99DIO    C1554509   6.251   9.617  -0.218
   99DIO     F554510   6.188   9.556  -0.114
   99DIO    C1654511   6.382   9.566  -0.255
   99DIO    C1754512   6.457   9.628  -0.363
   99DIO    C1854513   6.389   9.726  -0.446
   99DIO    C1954514   6.257   9.775  -0.410
   99DIO     F654515   6.195   9.854  -0.500
   99DIO    C2054516   6.598   9.584  -0.395
   99DIO     O354517   6.668   9.527  -0.284
   99DIO    C2154518   6.712   9.625  -0.190
   99DIO    C2254519   6.800   9.729  -0.257
   99DIO    C2354520   6.720   9.788  -0.373
   99DIO     O454521   6.675   9.685  -0.461
   99DIO    C2454522   6.933   9.670  -0.310
   99DIO    C2554523   7.024   9.605  -0.205
   99DIO    C2654524   7.062   9.697  -0.091
   99DIO     H154525   5.342   9.711  -0.391
   99DIO     H254526   5.383   9.787   0.043
   99DIO     H354527   5.560   9.577  -0.026
   99DIO     H454528   5.811   9.557  -0.049
   99DIO     H554529   5.811   9.858  -0.366
   99DIO     H654530   6.420   9.479  -0.203
   99DIO     H754531   6.432   9.759  -0.540
   99DIO     H854532   6.588   9.503  -0.468
   99DIO     H954533   6.625   9.672  -0.144
   99DIO    H1054534   6.764   9.573  -0.110
   99DIO    H1154535   6.823   9.809  -0.186
   99DIO    H1254536   6.781   9.857  -0.431
   99DIO    H1354537   6.634   9.844  -0.336
   99DIO    H1454538   6.913   9.596  -0.389
   99DIO    H1554539   6.990   9.751  -0.359
   99DIO    H1654540   6.977   9.514  -0.165
   99DIO    H1754541   7.116   9.571  -0.256
   99DIO    H1854542   7.106   9.790  -0.128
   99DIO    H1954543   6.976   9.722  -0.029
   99DIO    H2054544   7.136   9.648  -0.027
  100DIO     F154545   8.454   5.865   1.551
  100DIO     C154546   8.532   5.759   1.582
  100DIO     C254547   8.676   5.771   1.570
  100DIO     C354548   8.765   5.657   1.601
  100DIO     C454549   8.699   5.532   1.647
  100DIO     C554550   8.555   5.523   1.659
  100DIO     F254551   8.499   5.409   1.706
  100DIO     C654552   8.471   5.636   1.627
  100DIO     F354553   8.337   5.626   1.637
  100DIO     C754554   8.911   5.666   1.588
  100DIO     C854555   8.988   5.564   1.513
  100DIO     C954556   9.133   5.573   1.501
  100DIO    C1054557   9.205   5.677   1.571
  100DIO    C1154558   9.133   5.783   1.638
  100DIO    C1254559   8.989   5.776   1.648
  100DIO     F454560   8.924   5.873   1.717
  100DIO     O154561   9.338   5.694   1.535
  100DIO    C1354562   9.432   5.734   1.629
  100DIO     O254563   9.433   5.734   1.755
  100DIO    C1454564   9.561   5.768   1.568
  100DIO    C1554565   9.628   5.679   1.471
  100DIO     F554566   9.565   5.567   1.428
  100DIO    C1654567   9.758   5.707   1.415
  100DIO    C1754568   9.834   5.824   1.459
  100DIO    C1854569   9.765   5.922   1.542
  100DIO    C1954570   9.634   5.894   1.597
  100DIO     F654571   9.571   5.995   1.661
  100DIO    C2054572   9.975   5.849   1.410
  100DIO     O354573  10.045   5.730   1.372
  100DIO    C2154574  10.088   5.653   1.483
  100DIO    C2254575  10.177   5.736   1.575
  100DIO    C2354576  10.096   5.860   1.615
  100DIO     O454577  10.052   5.930   1.499
  100DIO    C2454578  10.310   5.779   1.509
  100DIO    C2554579  10.401   5.665   1.461
  100DIO    C2654580  10.439   5.567   1.571
  100DIO     H154581   8.718   5.865   1.537
  100DIO     H254582   8.760   5.449   1.681
  100DIO     H354583   8.937   5.484   1.463
  100DIO     H454584   9.188   5.503   1.440
  100DIO     H554585   9.187   5.864   1.685
  100DIO     H654586   9.796   5.642   1.337
  100DIO     H754587   9.808   6.020   1.560
  100DIO     H854588   9.965   5.908   1.318
  100DIO     H954589  10.002   5.615   1.538
  100DIO    H1054590  10.141   5.565   1.445
  100DIO    H1154591  10.200   5.678   1.666
  100DIO    H1254592  10.157   5.928   1.674
  100DIO    H1354593  10.010   5.832   1.677
  100DIO    H1454594  10.290   5.844   1.423
  100DIO    H1554595  10.366   5.840   1.581
  100DIO    H1654596  10.353   5.611   1.379
  100DIO    H1754597  10.492   5.709   1.420
  100DIO    H1854598  10.483   5.619   1.657
  100DIO    H1954599  10.352   5.509   1.605
  100DIO    H2054600  10.513   5.495   1.533
  101DIO     F154601   6.939   7.482   5.484
  101DIO     C154602   7.016   7.590   5.463
  101DIO     C254603   7.160   7.577   5.474
  101DIO     C354604   7.249   7.694   5.455
  101DIO     C454605   7.184   7.823   5.421
  101DIO     C554606   7.039   7.833   5.410
  101DIO     F254607   6.984   7.951   5.376
  101DIO     C654608   6.956   7.717   5.431
  101DIO     F354609   6.822   7.728   5.422
  101DIO     C754610   7.396   7.683   5.467
  101DIO     C854611   7.473   7.777   5.551
  101DIO     C954612   7.617   7.767   5.563
  101DIO    C1054613   7.690   7.670   5.483
  101DIO    C1154614   7.618   7.572   5.405
  101DIO    C1254615   7.473   7.580   5.395
  101DIO     F454616   7.409   7.491   5.318
  101DIO     O154617   7.822   7.650   5.516
  101DIO    C1354618   7.917   7.620   5.419
  101DIO     O254619   7.918   7.633   5.294
  101DIO    C1454620   8.046   7.580   5.476
  101DIO    C1554621   8.112   7.659   5.582
  101DIO     F554622   8.050   7.766   5.636
  101DIO    C1654623   8.243   7.625   5.635
  101DIO    C1754624   8.319   7.513   5.579
  101DIO    C1854625   8.250   7.424   5.487
  101DIO    C1954626   8.118   7.457   5.435
  101DIO     F654627   8.056   7.363   5.361
  101DIO    C2054628   8.459   7.484   5.625
  101DIO     O354629   8.529   7.598   5.675
  101DIO    C2154630   8.573   7.686   5.572
  101DIO    C2254631   8.662   7.612   5.472
  101DIO    C2354632   8.581   7.494   5.420
  101DIO     O454633   8.537   7.412   5.528
  101DIO    C2454634   8.795   7.563   5.534
  101DIO    C2554635   8.885   7.672   5.593
  101DIO    C2654636   8.924   7.780   5.494
  101DIO     H154637   7.203   7.480   5.497
  101DIO     H254638   7.244   7.909   5.396
  101DIO     H354639   7.421   7.852   5.610
  101DIO     H454640   7.673   7.831   5.631
  101DIO     H554641   7.672   7.496   5.350
  101DIO     H654642   8.281   7.682   5.719
  101DIO     H754643   8.293   7.328   5.459
  101DIO     H854644   8.450   7.416   5.711
  101DIO     H954645   8.486   7.730   5.522
  101DIO    H1054646   8.626   7.769   5.619
  101DIO    H1154647   8.684   7.679   5.388
  101DIO    H1254648   8.642   7.431   5.354
  101DIO    H1354649   8.495   7.527   5.362
  101DIO    H1454650   8.775   7.489   5.613
  101DIO    H1554651   8.851   7.510   5.456
  101DIO    H1654652   8.838   7.717   5.681
  101DIO    H1754653   8.977   7.624   5.629
  101DIO    H1854654   8.968   7.738   5.403
  101DIO    H1954655   8.837   7.841   5.465
  101DIO    H2054656   8.997   7.848   5.539
  102DIO     F154657   0.067  10.215   5.520
  102DIO     C154658   0.144  10.225   5.630
  102DIO     C254659   0.288  10.216   5.616
  102DIO     C354660   0.377  10.224   5.734
  102DIO     C454661   0.312  10.245   5.866
  102DIO     C554662   0.167  10.255   5.877
  102DIO     F254663   0.112  10.279   5.997
  102DIO     C654664   0.084  10.246   5.759
  102DIO     F354665  -0.050  10.254   5.771
  102DIO     C754666   0.524  10.213   5.723
  102DIO     C854667   0.601  10.120   5.808
  102DIO     C954668   0.745  10.110   5.797
  102DIO    C1054669   0.818  10.198   5.708
  102DIO    C1154670   0.745  10.285   5.617
  102DIO    C1254671   0.601  10.294   5.627
  102DIO     F454672   0.536  10.379   5.545
  102DIO     O154673   0.950  10.167   5.685
  102DIO    C1354674   1.045  10.267   5.664
  102DIO     O254675   1.046  10.390   5.689
  102DIO    C1454676   1.174  10.214   5.619
  102DIO    C1554677   1.240  10.101   5.687
  102DIO     F554678   1.177  10.037   5.788
  102DIO    C1654679   1.371  10.051   5.648
  102DIO    C1754680   1.447  10.117   5.543
  102DIO    C1854681   1.378  10.218   5.462
  102DIO    C1954682   1.246  10.266   5.501
  102DIO     F654683   1.184  10.348   5.414
  102DIO    C2054684   1.587  10.074   5.509
  102DIO     O354685   1.657  10.013   5.618
  102DIO    C2154686   1.701  10.108   5.715
  102DIO    C2254687   1.790  10.214   5.651
  102DIO    C2354688   1.709  10.277   5.538
  102DIO     O454689   1.665  10.177   5.446
  102DIO    C2454690   1.922  10.157   5.597
  102DIO    C2554691   2.013  10.089   5.699
  102DIO    C2654692   2.052  10.177   5.817
  102DIO     H154693   0.331  10.202   5.518
  102DIO     H254694   0.372  10.262   5.954
  102DIO     H354695   0.549  10.055   5.877
  102DIO     H454696   0.800  10.036   5.854
  102DIO     H554697   0.800  10.347   5.547
  102DIO     H654698   1.409   9.962   5.697
  102DIO     H754699   1.421  10.254   5.370
  102DIO     H854700   1.578   9.996   5.433
  102DIO     H954701   1.614  10.154   5.763
  102DIO    H1054702   1.754  10.053   5.794
  102DIO    H1154703   1.812  10.292   5.725
  102DIO    H1254704   1.770  10.349   5.482
  102DIO    H1354705   1.623  10.332   5.577
  102DIO    H1454706   1.903  10.086   5.516
  102DIO    H1554707   1.979  10.240   5.551
  102DIO    H1654708   1.966   9.997   5.736
  102DIO    H1754709   2.105  10.057   5.648
  102DIO    H1854710   2.095  10.271   5.782
  102DIO    H1954711   1.965  10.200   5.880
  102DIO    H2054712   2.125  10.126   5.879
  103DIO     F154713   4.072   1.171   9.946
  103DIO     C154714   4.149   1.153  10.055
  103DIO     C254715   4.294   1.147  10.039
  103DIO     C354716   4.382   1.125  10.155
  103DIO     C454717   4.317   1.113  10.288
  103DIO     C554718   4.173   1.120  10.301
  103DIO     F254719   4.117   1.112  10.423
  103DIO     C654720   4.089   1.140  10.185
  103DIO     F354721   3.955   1.145  10.198
  103DIO     C754722   4.529   1.118  10.141
  103DIO     C854723   4.606   1.006  10.201
  103DIO     C954724   4.751   0.999  10.187
  103DIO    C1054725   4.823   1.107  10.123
  103DIO    C1154726   4.751   1.214  10.058
  103DIO    C1254727   4.607   1.220  10.069
  103DIO     F454728   4.542   1.323  10.011
  103DIO     O154729   4.955   1.082  10.093
  103DIO    C1354730   5.050   1.184  10.098
  103DIO     O254731   5.051   1.298  10.153
  103DIO    C1454732   5.179   1.145  10.041
  103DIO    C1554733   5.245   1.018  10.079
  103DIO     F554734   5.183   0.931  10.161
  103DIO    C1654735   5.376   0.980  10.029
  103DIO    C1754736   5.452   1.071   9.943
  103DIO    C1854737   5.383   1.188   9.891
  103DIO    C1954738   5.251   1.225   9.940
  103DIO     F654739   5.189   1.326   9.876
  103DIO    C2054740   5.593   1.038   9.899
  103DIO     O354741   5.662   0.951   9.990
  103DIO    C2154742   5.706   1.018  10.107
  103DIO    C2254743   5.795   1.137  10.073
  103DIO    C2354744   5.714   1.226   9.979
  103DIO     O454745   5.670   1.153   9.865
  103DIO    C2454746   5.928   1.096  10.005
  103DIO    C2554747   6.018   1.003  10.087
  103DIO    C2654748   6.057   1.059  10.223
  103DIO     H154749   4.336   1.158   9.940
  103DIO     H254750   4.377   1.107  10.378
  103DIO     H354751   4.554   0.925  10.251
  103DIO     H454752   4.806   0.913  10.223
  103DIO     H554753   4.805   1.292  10.005
  103DIO     H654754   5.414   0.882  10.054
  103DIO     H754755   5.426   1.246   9.810
  103DIO     H854756   5.583   0.980   9.806
  103DIO     H954757   5.619   1.050  10.166
  103DIO    H1054758   5.759   0.945  10.170
  103DIO    H1154759   5.817   1.193  10.164
  103DIO    H1254760   5.775   1.310   9.943
  103DIO    H1354761   5.628   1.270  10.031
  103DIO    H1454762   5.908   1.047   9.909
  103DIO    H1554763   5.984   1.187   9.982
  103DIO    H1654764   5.971   0.905  10.100
  103DIO    H1754765   6.110   0.985  10.029
  103DIO    H1854766   6.101   1.159  10.214
  103DIO    H1954767   5.970   1.065  10.290
  103DIO    H2054768   6.130   0.994  10.271
  104DIO     F154769   6.736   9.836   3.446
  104DIO     C154770   6.814   9.907   3.362
  104DIO     C254771   6.958   9.904   3.379
  104DIO     C354772   7.047   9.983   3.290
  104DIO     C454773   6.981  10.061   3.182
  104DIO     C554774   6.837  10.062   3.168
  104DIO     F254775   6.782  10.132   3.067
  104DIO     C654776   6.753   9.985   3.257
  104DIO     F354777   6.620   9.988   3.243
  104DIO     C754778   7.193   9.982   3.306
  104DIO     C854779   7.270  10.108   3.312
  104DIO     C954780   7.415  10.107   3.327
  104DIO    C1054781   7.488   9.982   3.326
  104DIO    C1154782   7.415   9.856   3.328
  104DIO    C1254783   7.271   9.857   3.315
  104DIO     F454784   7.206   9.739   3.312
  104DIO     O154785   7.620   9.988   3.365
  104DIO    C1354786   7.714   9.902   3.309
  104DIO     O254787   7.715   9.834   3.203
  104DIO    C1454788   7.843   9.907   3.378
  104DIO    C1554789   7.910  10.035   3.411
  104DIO     F554790   7.847  10.152   3.385
  104DIO    C1654791   8.041  10.042   3.473
  104DIO    C1754792   8.116   9.921   3.500
  104DIO    C1854793   8.048   9.793   3.485
  104DIO    C1954794   7.916   9.786   3.423
  104DIO     F654795   7.853   9.667   3.426
  104DIO    C2054796   8.257   9.926   3.555
  104DIO     O354797   8.327  10.047   3.522
  104DIO    C2154798   8.370  10.050   3.386
  104DIO    C2254799   8.459   9.930   3.355
  104DIO    C2354800   8.379   9.805   3.390
  104DIO     O454801   8.334   9.810   3.525
  104DIO    C2454802   8.592   9.931   3.434
  104DIO    C2554803   8.683  10.052   3.411
  104DIO    C2654804   8.721  10.074   3.266
  104DIO     H154805   7.001   9.844   3.458
  104DIO     H254806   7.042  10.112   3.108
  104DIO     H354807   7.219  10.203   3.311
  104DIO     H454808   7.470  10.200   3.340
  104DIO     H554809   7.470   9.763   3.333
  104DIO     H654810   8.079  10.139   3.502
  104DIO     H754811   8.090   9.701   3.524
  104DIO     H854812   8.247   9.928   3.664
  104DIO     H954813   8.284  10.052   3.319
  104DIO    H1054814   8.423  10.145   3.370
  104DIO    H1154815   8.482   9.929   3.248
  104DIO    H1254816   8.440   9.715   3.377
  104DIO    H1354817   8.292   9.794   3.322
  104DIO    H1454818   8.572   9.923   3.541
  104DIO    H1554819   8.649   9.841   3.407
  104DIO    H1654820   8.635  10.143   3.450
  104DIO    H1754821   8.775  10.038   3.470
  104DIO    H1854822   8.765   9.984   3.222
  104DIO    H1954823   8.635  10.103   3.205
  104DIO    H2054824   8.795  10.155   3.258
  105DIO     F154825   7.664   4.764   5.595
  105DIO     C154826   7.742   4.744   5.703
  105DIO     C254827   7.886   4.738   5.687
  105DIO     C354828   7.975   4.714   5.803
  105DIO     C454829   7.909   4.698   5.935
  105DIO     C554830   7.765   4.704   5.948
  105DIO     F254831   7.710   4.693   6.071
  105DIO     C654832   7.681   4.727   5.833
  105DIO     F354833   7.548   4.732   5.847
  105DIO     C754834   8.121   4.706   5.789
  105DIO     C854835   8.198   4.593   5.846
  105DIO     C954836   8.343   4.586   5.832
  105DIO    C1054837   8.416   4.696   5.771
  105DIO    C1154838   8.343   4.805   5.708
  105DIO    C1254839   8.199   4.810   5.719
  105DIO     F454840   8.134   4.915   5.664
  105DIO     O154841   8.548   4.672   5.740
  105DIO    C1354842   8.642   4.774   5.747
  105DIO     O254843   8.643   4.886   5.805
  105DIO    C1454844   8.771   4.736   5.689
  105DIO    C1554845   8.838   4.608   5.724
  105DIO     F554846   8.775   4.519   5.804
  105DIO    C1654847   8.969   4.571   5.673
  105DIO    C1754848   9.044   4.664   5.590
  105DIO    C1854849   8.976   4.783   5.540
  105DIO    C1954850   8.844   4.819   5.590
  105DIO     F654851   8.781   4.922   5.529
  105DIO    C2054852   9.185   4.632   5.545
  105DIO     O354853   9.255   4.543   5.633
  105DIO    C2154854   9.298   4.607   5.752
  105DIO    C2254855   9.387   4.727   5.721
  105DIO    C2354856   9.307   4.819   5.629
  105DIO     O454857   9.262   4.748   5.513
  105DIO    C2454858   9.520   4.688   5.652
  105DIO    C2554859   9.611   4.593   5.732
  105DIO    C2654860   9.649   4.646   5.869
  105DIO     H154861   7.929   4.752   5.589
  105DIO     H254862   7.970   4.690   6.025
  105DIO     H354863   8.147   4.511   5.894
  105DIO     H454864   8.398   4.500   5.866
  105DIO     H554865   8.398   4.884   5.657
  105DIO     H654866   9.007   4.472   5.695
  105DIO     H754867   9.018   4.843   5.461
  105DIO     H854868   9.175   4.577   5.451
  105DIO     H954869   9.212   4.638   5.812
  105DIO    H1054870   9.351   4.533   5.813
  105DIO    H1154871   9.410   4.781   5.813
  105DIO    H1254872   9.368   4.903   5.595
  105DIO    H1354873   9.220   4.861   5.682
  105DIO    H1454874   9.500   4.641   5.555
  105DIO    H1554875   9.577   4.779   5.631
  105DIO    H1654876   9.563   4.495   5.742
  105DIO    H1754877   9.703   4.577   5.674
  105DIO    H1854878   9.693   4.746   5.863
  105DIO    H1954879   9.563   4.650   5.936
  105DIO    H2054880   9.723   4.579   5.915
  106DIO     F154881   0.603   5.033  10.300
  106DIO     C154882   0.680   5.134  10.257
  106DIO     C254883   0.824   5.124  10.270
  106DIO     C354884   0.913   5.234  10.226
  106DIO     C454885   0.848   5.352  10.164
  106DIO     C554886   0.703   5.360  10.152
  106DIO     F254887   0.648   5.467  10.092
  106DIO     C654888   0.620   5.251  10.197
  106DIO     F354889   0.486   5.260  10.186
  106DIO     C754890   1.059   5.226  10.240
  106DIO     C854891   1.137   5.337  10.301
  106DIO     C954892   1.281   5.329  10.315
  106DIO    C1054893   1.354   5.217  10.258
  106DIO    C1154894   1.281   5.104  10.204
  106DIO    C1254895   1.137   5.110  10.193
  106DIO     F454896   1.072   5.006  10.137
  106DIO     O154897   1.486   5.205  10.295
  106DIO    C1354898   1.581   5.154  10.207
  106DIO     O254899   1.581   5.139  10.082
  106DIO    C1454900   1.710   5.127  10.271
  106DIO    C1554901   1.776   5.228  10.357
  106DIO     F554902   1.713   5.344  10.387
  106DIO    C1654903   1.907   5.206  10.416
  106DIO    C1754904   1.983   5.085  10.386
  106DIO    C1854905   1.914   4.978  10.316
  106DIO    C1954906   1.782   4.999  10.258
  106DIO     F654907   1.720   4.891  10.207
  106DIO    C2054908   2.123   5.066  10.438
  106DIO     O354909   2.193   5.189  10.462
  106DIO    C2154910   2.237   5.252  10.342
  106DIO    C2254911   2.326   5.158  10.261
  106DIO    C2354912   2.245   5.031  10.236
  106DIO     O454913   2.201   4.975  10.359
  106DIO    C2454914   2.458   5.124  10.332
  106DIO    C2554915   2.549   5.243  10.365
  106DIO    C2654916   2.587   5.327  10.245
  106DIO     H154917   0.867   5.035  10.314
  106DIO     H254918   0.908   5.431  10.121
  106DIO     H354919   1.085   5.422  10.342
  106DIO     H454920   1.336   5.406  10.367
  106DIO     H554921   1.336   5.018  10.167
  106DIO     H654922   1.945   5.280  10.486
  106DIO     H754923   1.957   4.878  10.310
  106DIO     H854924   2.114   5.019  10.536
  106DIO     H954925   2.150   5.283  10.283
  106DIO    H1054926   2.289   5.343  10.370
  106DIO    H1154927   2.348   5.205  10.164
  106DIO    H1254928   2.306   4.956  10.185
  106DIO    H1354929   2.159   5.051  10.171
  106DIO    H1454930   2.438   5.069  10.425
  106DIO    H1554931   2.515   5.055  10.267
  106DIO    H1654932   2.502   5.306  10.441
  106DIO    H1754933   2.641   5.204  10.411
  106DIO    H1854934   2.631   5.265  10.166
  106DIO    H1954935   2.501   5.380  10.203
  106DIO    H2054936   2.661   5.402  10.274
  107DIO     F154937   3.050   2.454   2.866
  107DIO     C154938   3.128   2.382   2.949
  107DIO     C254939   3.272   2.385   2.932
  107DIO     C354940   3.361   2.305   3.020
  107DIO     C454941   3.295   2.225   3.126
  107DIO     C554942   3.151   2.224   3.141
  107DIO     F254943   3.096   2.153   3.241
  107DIO     C654944   3.067   2.302   3.053
  107DIO     F354945   2.934   2.299   3.067
  107DIO     C754946   3.507   2.306   3.004
  107DIO     C854947   3.584   2.180   2.996
  107DIO     C954948   3.729   2.181   2.981
  107DIO    C1054949   3.802   2.307   2.983
  107DIO    C1154950   3.729   2.433   2.984
  107DIO    C1254951   3.585   2.432   2.996
  107DIO     F454952   3.520   2.550   3.002
  107DIO     O154953   3.934   2.302   2.945
  107DIO    C1354954   4.028   2.386   3.002
  107DIO     O254955   4.029   2.453   3.109
  107DIO    C1454956   4.158   2.382   2.933
  107DIO    C1554957   4.224   2.254   2.898
  107DIO     F554958   4.161   2.137   2.922
  107DIO    C1654959   4.355   2.248   2.836
  107DIO    C1754960   4.430   2.370   2.811
  107DIO    C1854961   4.362   2.498   2.828
  107DIO    C1954962   4.230   2.503   2.889
  107DIO     F654963   4.168   2.623   2.889
  107DIO    C2054964   4.571   2.365   2.756
  107DIO     O354965   4.641   2.244   2.787
  107DIO    C2154966   4.685   2.239   2.923
  107DIO    C2254967   4.773   2.359   2.956
  107DIO    C2354968   4.693   2.484   2.923
  107DIO     O454969   4.648   2.482   2.787
  107DIO    C2454970   4.906   2.359   2.877
  107DIO    C2554971   4.997   2.237   2.898
  107DIO    C2654972   5.035   2.213   3.043
  107DIO     H154973   3.315   2.447   2.854
  107DIO     H254974   3.356   2.173   3.199
  107DIO     H354975   3.533   2.085   2.996
  107DIO     H454976   3.784   2.089   2.966
  107DIO     H554977   3.784   2.526   2.980
  107DIO     H654978   4.393   2.152   2.805
  107DIO     H754979   4.405   2.590   2.790
  107DIO     H854980   4.561   2.366   2.647
  107DIO     H954981   4.598   2.236   2.989
  107DIO    H1054982   4.737   2.145   2.937
  107DIO    H1154983   4.796   2.359   3.063
  107DIO    H1254984   4.754   2.574   2.936
  107DIO    H1354985   4.607   2.494   2.990
  107DIO    H1454986   4.886   2.368   2.769
  107DIO    H1554987   4.963   2.449   2.905
  107DIO    H1654988   4.950   2.147   2.857
  107DIO    H1754989   5.089   2.253   2.839
  107DIO    H1854990   5.079   2.303   3.088
  107DIO    H1954991   4.949   2.184   3.103
  107DIO    H2054992   5.109   2.133   3.049
  108DIO     F154993   6.751   4.314   3.347
  108DIO     C154994   6.828   4.211   3.387
  108DIO     C254995   6.972   4.222   3.374
  108DIO     C354996   7.061   4.111   3.415
  108DIO     C454997   6.996   3.991   3.472
  108DIO     C554998   6.851   3.983   3.484
  108DIO     F254999   6.796   3.874   3.541
  108DIO     C655000   6.768   4.093   3.443
  108DIO     F355001   6.634   4.084   3.454
  108DIO     C755002   7.208   4.119   3.401
  108DIO     C855003   7.285   4.011   3.336
  108DIO     C955004   7.429   4.018   3.323
  108DIO    C1055005   7.502   4.129   3.383
  108DIO    C1155006   7.429   4.240   3.441
  108DIO    C1255007   7.285   4.234   3.452
  108DIO     F455008   7.220   4.336   3.511
  108DIO     O155009   7.634   4.142   3.346
  108DIO    C1355010   7.729   4.190   3.436
  108DIO     O255011   7.730   4.201   3.562
  108DIO    C1455012   7.858   4.219   3.373
  108DIO    C1555013   7.924   4.121   3.283
  108DIO     F555014   7.861   4.007   3.250
  108DIO    C1655015   8.055   4.145   3.225
  108DIO    C1755016   8.131   4.265   3.259
  108DIO    C1855017   8.062   4.370   3.333
  108DIO    C1955018   7.930   4.347   3.390
  108DIO     F655019   7.868   4.453   3.445
  108DIO    C2055020   8.271   4.286   3.208
  108DIO     O355021   8.341   4.164   3.180
  108DIO    C2155022   8.385   4.097   3.298
  108DIO    C2255023   8.474   4.188   3.382
  108DIO    C2355024   8.393   4.314   3.411
  108DIO     O455025   8.349   4.374   3.290
  108DIO    C2455026   8.606   4.224   3.313
  108DIO    C2555027   8.697   4.107   3.275
  108DIO    C2655028   8.736   4.019   3.393
  108DIO     H155029   7.015   4.313   3.333
  108DIO     H255030   7.056   3.910   3.513
  108DIO     H355031   7.233   3.926   3.292
  108DIO     H455032   7.484   3.944   3.268
  108DIO     H555033   7.484   4.325   3.481
  108DIO     H655034   8.093   4.073   3.153
  108DIO     H755035   8.105   4.469   3.342
  108DIO     H855036   8.262   4.336   3.111
  108DIO     H955037   8.298   4.063   3.356
  108DIO    H1055038   8.438   4.006   3.267
  108DIO    H1155039   8.496   4.138   3.477
  108DIO    H1255040   8.454   4.388   3.464
  108DIO    H1355041   8.307   4.292   3.475
  108DIO    H1455042   8.587   4.282   3.221
  108DIO    H1555043   8.663   4.291   3.379
  108DIO    H1655044   8.650   4.046   3.197
  108DIO    H1755045   8.789   4.147   3.230
  108DIO    H1855046   8.779   4.078   3.474
  108DIO    H1955047   8.649   3.964   3.432
  108DIO    H2055048   8.809   3.944   3.361
  109DIO     F155049   0.094  10.273   4.876
  109DIO     C155050   0.171  10.235   4.773
  109DIO     C255051   0.315  10.248   4.783
  109DIO     C355052   0.404  10.209   4.671
  109DIO     C455053   0.339  10.154   4.550
  109DIO     C555054   0.194  10.142   4.542
  109DIO     F255055   0.139  10.088   4.432
  109DIO     C655056   0.111  10.182   4.653
  109DIO     F355057  -0.023  10.171   4.644
  109DIO     C755058   0.551  10.223   4.680
  109DIO     C855059   0.628  10.290   4.573
  109DIO     C955060   0.772  10.303   4.581
  109DIO    C1055061   0.845  10.241   4.690
  109DIO    C1155062   0.773  10.180   4.800
  109DIO    C1255063   0.628  10.170   4.794
  109DIO     F455064   0.564  10.108   4.895
  109DIO     O155065   0.977  10.277   4.704
  109DIO    C1355066   1.072  10.186   4.751
  109DIO     O255067   1.073  10.060   4.758
  109DIO    C1455068   1.201  10.249   4.780
  109DIO    C1555069   1.267  10.340   4.685
  109DIO     F555070   1.205  10.376   4.571
  109DIO    C1655071   1.398  10.398   4.710
  109DIO    C1755072   1.474  10.362   4.829
  109DIO    C1855073   1.405  10.286   4.932
  109DIO    C1955074   1.273  10.229   4.908
  109DIO     F655075   1.211  10.172   5.013
  109DIO    C2055076   1.614  10.412   4.851
  109DIO     O355077   1.684  10.443   4.729
  109DIO    C2155078   1.728  10.326   4.660
  109DIO    C2255079   1.817  10.240   4.749
  109DIO    C2355080   1.736  10.209   4.875
  109DIO     O455081   1.692  10.329   4.938
  109DIO    C2455082   1.950  10.309   4.787
  109DIO    C2555083   2.040  10.349   4.670
  109DIO    C2655084   2.079  10.233   4.580
  109DIO     H155085   0.358  10.287   4.875
  109DIO     H255086   0.399  10.115   4.469
  109DIO     H355087   0.576  10.336   4.490
  109DIO     H455088   0.828  10.360   4.507
  109DIO     H555089   0.827  10.139   4.884
  109DIO     H655090   1.436  10.471   4.639
  109DIO     H755091   1.448  10.275   5.031
  109DIO     H855092   1.605  10.508   4.903
  109DIO     H955093   1.641  10.269   4.625
  109DIO    H1055094   1.781  10.359   4.570
  109DIO    H1155095   1.839  10.146   4.698
  109DIO    H1255096   1.797  10.154   4.947
  109DIO    H1355097   1.650  10.145   4.851
  109DIO    H1455098   1.930  10.399   4.847
  109DIO    H1555099   2.006  10.241   4.853
  109DIO    H1655100   1.993  10.428   4.611
  109DIO    H1755101   2.132  10.393   4.712
  109DIO    H1855102   2.123  10.151   4.637
  109DIO    H1955103   1.992  10.195   4.525
  109DIO    H2055104   2.152  10.266   4.506
  110DIO     F155105   6.489  -0.496   1.161
  110DIO     C155106   6.567  -0.585   1.227
  110DIO     C255107   6.711  -0.578   1.211
  110DIO     C355108   6.799  -0.675   1.279
  110DIO     C455109   6.734  -0.776   1.366
  110DIO     C555110   6.590  -0.780   1.379
  110DIO     F255111   6.534  -0.871   1.462
  110DIO     C655112   6.506  -0.685   1.311
  110DIO     F355113   6.372  -0.691   1.324
  110DIO     C755114   6.946  -0.670   1.264
  110DIO     C855115   7.023  -0.792   1.229
  110DIO     C955116   7.168  -0.788   1.214
  110DIO    C1055117   7.240  -0.666   1.244
  110DIO    C1155118   7.168  -0.543   1.271
  110DIO    C1255119   7.024  -0.546   1.283
  110DIO     F455120   6.959  -0.432   1.314
  110DIO     O155121   7.372  -0.662   1.205
  110DIO    C1355122   7.467  -0.592   1.280
  110DIO     O255123   7.468  -0.550   1.398
  110DIO    C1455124   7.596  -0.581   1.211
  110DIO    C1555125   7.662  -0.698   1.150
  110DIO     F555126   7.600  -0.818   1.147
  110DIO    C1655127   7.793  -0.691   1.087
  110DIO    C1755128   7.869  -0.566   1.089
  110DIO    C1855129   7.800  -0.445   1.133
  110DIO    C1955130   7.669  -0.453   1.194
  110DIO     F655131   7.606  -0.336   1.220
  110DIO    C2055132   8.010  -0.559   1.035
  110DIO     O355133   8.079  -0.684   1.039
  110DIO    C2155134   8.123  -0.718   1.170
  110DIO    C2255135   8.212  -0.609   1.228
  110DIO    C2355136   8.131  -0.479   1.223
  110DIO     O455137   8.087  -0.452   1.090
  110DIO    C2455138   8.345  -0.591   1.151
  110DIO    C2555139   8.435  -0.715   1.145
  110DIO    C2655140   8.474  -0.769   1.282
  110DIO     H155141   6.753  -0.501   1.148
  110DIO     H255142   6.795  -0.843   1.426
  110DIO     H355143   6.971  -0.885   1.208
  110DIO     H455144   7.223  -0.874   1.180
  110DIO     H555145   7.222  -0.451   1.288
  110DIO     H655146   7.831  -0.778   1.036
  110DIO     H755147   7.843  -0.347   1.117
  110DIO     H855148   8.000  -0.535   0.928
  110DIO     H955149   8.036  -0.736   1.234
  110DIO    H1055150   8.176  -0.814   1.164
  110DIO    H1155151   8.234  -0.632   1.333
  110DIO    H1255152   8.192  -0.394   1.256
  110DIO    H1355153   8.045  -0.484   1.291
  110DIO    H1455154   8.325  -0.559   1.048
  110DIO    H1555155   8.401  -0.510   1.198
  110DIO    H1655156   8.388  -0.794   1.086
  110DIO    H1755157   8.527  -0.687   1.091
  110DIO    H1855158   8.518  -0.691   1.345
  110DIO    H1955159   8.387  -0.812   1.334
  110DIO    H2055160   8.547  -0.850   1.270
  111DIO     F155161   6.885   6.791  10.681
  111DIO     C155162   6.963   6.693  10.730
  111DIO     C255163   7.107   6.702  10.716
  111DIO     C355164   7.196   6.595  10.767
  111DIO     C455165   7.130   6.480  10.834
  111DIO     C555166   6.986   6.473  10.847
  111DIO     F255167   6.930   6.369  10.912
  111DIO     C655168   6.902   6.579  10.796
  111DIO     F355169   6.768   6.571  10.807
  111DIO     C755170   7.342   6.602  10.752
  111DIO     C855171   7.419   6.489  10.696
  111DIO     C955172   7.564   6.495  10.682
  111DIO    C1055173   7.636   6.610  10.733
  111DIO    C1155174   7.564   6.726  10.782
  111DIO    C1255175   7.420   6.720  10.793
  111DIO     F455176   7.355   6.827  10.843
  111DIO     O155177   7.769   6.620  10.695
  111DIO    C1355178   7.863   6.676  10.781
  111DIO     O255179   7.864   6.697  10.905
  111DIO    C1455180   7.992   6.699  10.715
  111DIO    C1555181   8.058   6.594  10.635
  111DIO     F555182   7.996   6.477  10.611
  111DIO    C1655183   8.189   6.613  10.574
  111DIO    C1755184   8.265   6.735  10.598
  111DIO    C1855185   8.196   6.846  10.663
  111DIO    C1955186   8.065   6.828  10.722
  111DIO     F655187   8.002   6.939  10.767
  111DIO    C2055188   8.406   6.752  10.546
  111DIO     O355189   8.475   6.628  10.528
  111DIO    C2155190   8.519   6.571  10.651
  111DIO    C2255191   8.608   6.669  10.728
  111DIO    C2355192   8.527   6.797  10.745
  111DIO     O455193   8.483   6.847  10.620
  111DIO    C2455194   8.741   6.699  10.655
  111DIO    C2555195   8.831   6.579  10.627
  111DIO    C2655196   8.870   6.501  10.752
  111DIO     H155197   7.149   6.789  10.668
  111DIO     H255198   7.191   6.404  10.881
  111DIO     H355199   7.368   6.401  10.660
  111DIO     H455200   7.619   6.416  10.634
  111DIO     H555201   7.618   6.814  10.814
  111DIO     H655202   8.227   6.535  10.509
  111DIO     H755203   8.239   6.946  10.664
  111DIO     H855204   8.396   6.794  10.445
  111DIO     H955205   8.432   6.543  10.712
  111DIO    H1055206   8.572   6.478  10.628
  111DIO    H1155207   8.631   6.627  10.827
  111DIO    H1255208   8.588   6.875  10.792
  111DIO    H1355209   8.441   6.780  10.811
  111DIO    H1455210   8.721   6.749  10.559
  111DIO    H1555211   8.797   6.772  10.715
  111DIO    H1655212   8.784   6.512  10.555
  111DIO    H1755213   8.923   6.615  10.579
  111DIO    H1855214   8.914   6.567  10.828
  111DIO    H1955215   8.783   6.451  10.796
  111DIO    H2055216   8.944   6.424  10.727
  112DIO     F155217   2.662   2.622  10.351
  112DIO     C155218   2.739   2.687  10.440
  112DIO     C255219   2.883   2.671  10.433
  112DIO     C355220   2.972   2.739  10.530
  112DIO     C455221   2.907   2.824  10.632
  112DIO     C555222   2.762   2.838  10.637
  112DIO     F255223   2.707   2.920  10.728
  112DIO     C655224   2.679   2.770  10.541
  112DIO     F355225   2.545   2.783  10.547
  112DIO     C755226   3.118   2.723  10.526
  112DIO     C855227   3.196   2.687  10.647
  112DIO     C955228   3.340   2.672  10.642
  112DIO    C1055229   3.413   2.703  10.521
  112DIO    C1155230   3.340   2.732  10.398
  112DIO    C1255231   3.196   2.744  10.402
  112DIO     F455232   3.131   2.776  10.288
  112DIO     O155233   3.545   2.664  10.517
  112DIO    C1355234   3.640   2.740  10.448
  112DIO     O255235   3.640   2.859  10.406
  112DIO    C1455236   3.769   2.671  10.436
  112DIO    C1555237   3.835   2.609  10.553
  112DIO     F555238   3.772   2.605  10.672
  112DIO    C1655239   3.966   2.546  10.544
  112DIO    C1755240   4.042   2.549  10.420
  112DIO    C1855241   3.973   2.595  10.299
  112DIO    C1955242   3.841   2.656  10.308
  112DIO     F655243   3.779   2.682  10.191
  112DIO    C2055244   4.182   2.495  10.412
  112DIO     O355245   4.252   2.498  10.537
  112DIO    C2155246   4.296   2.629  10.573
  112DIO    C2255247   4.385   2.688  10.464
  112DIO    C2355248   4.304   2.684  10.334
  112DIO     O455249   4.260   2.552  10.306
  112DIO    C2455250   4.517   2.611  10.445
  112DIO    C2555251   4.608   2.604  10.569
  112DIO    C2655252   4.646   2.740  10.625
  112DIO     H155253   2.926   2.609  10.355
  112DIO     H255254   2.967   2.884  10.700
  112DIO     H355255   3.144   2.666  10.739
  112DIO     H455256   3.395   2.638  10.729
  112DIO     H555257   3.395   2.749  10.306
  112DIO     H655258   4.004   2.495  10.631
  112DIO     H755259   4.016   2.579  10.201
  112DIO     H855260   4.173   2.389  10.387
  112DIO     H955261   4.209   2.693  10.591
  112DIO    H1055262   4.348   2.622  10.668
  112DIO    H1155263   4.407   2.792  10.488
  112DIO    H1255264   4.365   2.718  10.250
  112DIO    H1355265   4.218   2.752  10.340
  112DIO    H1455266   4.497   2.509  10.412
  112DIO    H1555267   4.574   2.659  10.364
  112DIO    H1655268   4.561   2.544  10.647
  112DIO    H1755269   4.700   2.551  10.541
  112DIO    H1855270   4.690   2.804  10.547
  112DIO    H1955271   4.560   2.792  10.667
  112DIO    H2055272   4.720   2.728  10.705
  113DIO     F155273   1.716   2.491   6.642
  113DIO     C155274   1.793   2.595   6.677
  113DIO     C255275   1.937   2.579   6.680
  113DIO     C355276   2.026   2.690   6.721
  113DIO     C455277   1.961   2.819   6.755
  113DIO     C555278   1.816   2.833   6.751
  113DIO     F255279   1.761   2.952   6.779
  113DIO     C655280   1.733   2.722   6.712
  113DIO     F355281   1.599   2.736   6.709
  113DIO     C755282   2.173   2.675   6.726
  113DIO     C855283   2.250   2.715   6.846
  113DIO     C955284   2.394   2.701   6.851
  113DIO    C1055285   2.467   2.656   6.734
  113DIO    C1155286   2.394   2.608   6.617
  113DIO    C1255287   2.250   2.620   6.613
  113DIO     F455288   2.185   2.581   6.502
  113DIO     O155289   2.599   2.622   6.753
  113DIO    C1355290   2.694   2.643   6.653
  113DIO     O255291   2.695   2.716   6.551
  113DIO    C1455292   2.823   2.580   6.683
  113DIO    C1555293   2.889   2.597   6.814
  113DIO     F555294   2.826   2.663   6.914
  113DIO    C1655295   3.020   2.541   6.844
  113DIO    C1755296   3.096   2.472   6.740
  113DIO    C1855297   3.027   2.439   6.616
  113DIO    C1955298   2.895   2.494   6.587
  113DIO     F655299   2.833   2.448   6.477
  113DIO    C2055300   3.236   2.423   6.765
  113DIO     O355301   3.306   2.498   6.866
  113DIO    C2155302   3.350   2.625   6.819
  113DIO    C2255303   3.439   2.610   6.696
  113DIO    C2355304   3.358   2.532   6.592
  113DIO     O455305   3.314   2.408   6.646
  113DIO    C2455306   3.571   2.537   6.725
  113DIO    C2555307   3.662   2.602   6.830
  113DIO    C2655308   3.701   2.746   6.798
  113DIO     H155309   1.980   2.483   6.653
  113DIO     H255310   2.021   2.906   6.776
  113DIO     H355311   2.198   2.751   6.934
  113DIO     H455312   2.449   2.722   6.942
  113DIO     H555313   2.449   2.570   6.532
  113DIO     H655314   3.058   2.549   6.945
  113DIO     H755315   3.070   2.370   6.545
  113DIO     H855316   3.227   2.322   6.806
  113DIO     H955317   3.263   2.688   6.797
  113DIO    H1055318   3.403   2.674   6.901
  113DIO    H1155319   3.461   2.710   6.656
  113DIO    H1255320   3.419   2.511   6.504
  113DIO    H1355321   3.272   2.591   6.558
  113DIO    H1455322   3.552   2.434   6.758
  113DIO    H1555323   3.628   2.529   6.632
  113DIO    H1655324   3.615   2.599   6.929
  113DIO    H1755325   3.754   2.543   6.838
  113DIO    H1855326   3.744   2.753   6.698
  113DIO    H1955327   3.614   2.813   6.802
  113DIO    H2055328   3.774   2.782   6.870
  114DIO     F155329   5.648   6.804   3.312
  114DIO     C155330   5.725   6.878   3.230
  114DIO     C255331   5.869   6.874   3.247
  114DIO     C355332   5.958   6.955   3.161
  114DIO     C455333   5.893   7.037   3.056
  114DIO     C555334   5.748   7.039   3.042
  114DIO     F255335   5.693   7.112   2.943
  114DIO     C655336   5.665   6.959   3.128
  114DIO     F355337   5.531   6.962   3.114
  114DIO     C755338   6.105   6.954   3.177
  114DIO     C855339   6.182   7.080   3.187
  114DIO     C955340   6.326   7.079   3.202
  114DIO    C1055341   6.399   6.953   3.197
  114DIO    C1155342   6.326   6.828   3.195
  114DIO    C1255343   6.182   6.829   3.182
  114DIO     F455344   6.117   6.711   3.175
  114DIO     O155345   6.531   6.958   3.236
  114DIO    C1355346   6.626   6.875   3.177
  114DIO     O255347   6.627   6.809   3.069
  114DIO    C1455348   6.755   6.877   3.247
  114DIO    C1555349   6.821   7.004   3.283
  114DIO     F555350   6.758   7.122   3.262
  114DIO    C1655351   6.952   7.009   3.346
  114DIO    C1755352   7.028   6.887   3.369
  114DIO    C1855353   6.959   6.759   3.349
  114DIO    C1955354   6.827   6.755   3.288
  114DIO     F655355   6.765   6.635   3.286
  114DIO    C2055356   7.168   6.891   3.424
  114DIO     O355357   7.238   7.012   3.395
  114DIO    C2155358   7.282   7.020   3.259
  114DIO    C2255359   7.371   6.901   3.224
  114DIO    C2355360   7.290   6.775   3.255
  114DIO     O455361   7.246   6.775   3.390
  114DIO    C2455362   7.503   6.899   3.303
  114DIO    C2555363   7.594   7.021   3.284
  114DIO    C2655364   7.633   7.048   3.140
  114DIO     H155365   5.912   6.811   3.324
  114DIO     H255366   5.953   7.091   2.984
  114DIO     H355367   6.130   7.175   3.189
  114DIO     H455368   6.381   7.171   3.218
  114DIO     H555369   6.381   6.734   3.197
  114DIO     H655370   6.990   7.105   3.378
  114DIO     H755371   7.002   6.667   3.385
  114DIO     H855372   7.159   6.888   3.533
  114DIO     H955373   7.195   7.024   3.193
  114DIO    H1055374   7.335   7.115   3.246
  114DIO    H1155375   7.393   6.903   3.117
  114DIO    H1255376   7.351   6.685   3.240
  114DIO    H1355377   7.204   6.766   3.187
  114DIO    H1455378   7.484   6.888   3.410
  114DIO    H1555379   7.560   6.810   3.273
  114DIO    H1655380   7.547   7.110   3.327
  114DIO    H1755381   7.686   7.005   3.342
  114DIO    H1855382   7.676   6.959   3.093
  114DIO    H1955383   7.546   7.079   3.080
  114DIO    H2055384   7.706   7.129   3.135
  115DIO     F155385   7.241   3.381   9.508
  115DIO     C155386   7.319   3.487   9.535
  115DIO     C255387   7.463   3.471   9.540
  115DIO     C355388   7.551   3.585   9.571
  115DIO     C455389   7.486   3.716   9.595
  115DIO     C555390   7.342   3.730   9.590
  115DIO     F255391   7.286   3.851   9.608
  115DIO     C655392   7.258   3.616   9.559
  115DIO     F355393   7.124   3.630   9.556
  115DIO     C755394   7.698   3.571   9.578
  115DIO     C855395   7.775   3.620   9.694
  115DIO     C955396   7.920   3.606   9.700
  115DIO    C1055397   7.992   3.552   9.587
  115DIO    C1155398   7.920   3.495   9.474
  115DIO    C1255399   7.776   3.507   9.470
  115DIO     F455400   7.711   3.459   9.362
  115DIO     O155401   8.124   3.519   9.609
  115DIO    C1355402   8.219   3.533   9.508
  115DIO     O255403   8.220   3.598   9.400
  115DIO    C1455404   8.348   3.473   9.542
  115DIO    C1555405   8.414   3.500   9.672
  115DIO     F555406   8.352   3.574   9.766
  115DIO    C1655407   8.545   3.447   9.705
  115DIO    C1755408   8.621   3.369   9.608
  115DIO    C1855409   8.552   3.327   9.486
  115DIO    C1955410   8.421   3.379   9.454
  115DIO     F655411   8.358   3.324   9.347
  115DIO    C2055412   8.762   3.322   9.637
  115DIO     O355413   8.831   3.405   9.731
  115DIO    C2155414   8.875   3.528   9.674
  115DIO    C2255415   8.964   3.504   9.553
  115DIO    C2355416   8.883   3.418   9.456
  115DIO     O455417   8.839   3.298   9.519
  115DIO    C2455418   9.097   3.433   9.588
  115DIO    C2555419   9.187   3.507   9.687
  115DIO    C2655420   9.226   3.647   9.643
  115DIO     H155421   7.505   3.373   9.520
  115DIO     H255422   7.547   3.805   9.609
  115DIO     H355423   7.723   3.663   9.779
  115DIO     H455424   7.975   3.635   9.789
  115DIO     H555425   7.974   3.450   9.393
  115DIO     H655426   8.583   3.463   9.806
  115DIO     H755427   8.595   3.252   9.421
  115DIO     H855428   8.752   3.225   9.686
  115DIO     H955429   8.788   3.589   9.647
  115DIO    H1055430   8.928   3.584   9.752
  115DIO    H1155431   8.986   3.599   9.505
  115DIO    H1255432   8.944   3.389   9.370
  115DIO    H1355433   8.797   3.473   9.417
  115DIO    H1455434   9.077   3.333   9.628
  115DIO    H1555435   9.153   3.418   9.495
  115DIO    H1655436   9.140   3.511   9.786
  115DIO    H1755437   9.279   3.448   9.700
  115DIO    H1855438   9.270   3.646   9.543
  115DIO    H1955439   9.139   3.714   9.643
  115DIO    H2055440   9.299   3.689   9.712
  116DIO     F155441   6.487   1.144   1.529
  116DIO     C155442   6.565   1.249   1.562
  116DIO     C255443   6.709   1.233   1.566
  116DIO     C355444   6.798   1.345   1.604
  116DIO     C455445   6.732   1.474   1.634
  116DIO     C555446   6.588   1.488   1.630
  116DIO     F255447   6.532   1.608   1.654
  116DIO     C655448   6.504   1.376   1.593
  116DIO     F355449   6.370   1.390   1.590
  116DIO     C755450   6.944   1.330   1.609
  116DIO     C855451   7.021   1.373   1.728
  116DIO     C955452   7.166   1.359   1.733
  116DIO    C1055453   7.238   1.311   1.617
  116DIO    C1155454   7.166   1.260   1.502
  116DIO    C1255455   7.022   1.272   1.498
  116DIO     F455456   6.957   1.230   1.387
  116DIO     O155457   7.371   1.277   1.638
  116DIO    C1355458   7.465   1.296   1.537
  116DIO     O255459   7.466   1.367   1.433
  116DIO    C1455460   7.594   1.234   1.569
  116DIO    C1555461   7.661   1.254   1.699
  116DIO     F555462   7.598   1.323   1.797
  116DIO    C1655463   7.791   1.199   1.730
  116DIO    C1755464   7.867   1.127   1.628
  116DIO    C1855465   7.798   1.091   1.505
  116DIO    C1955466   7.667   1.145   1.475
  116DIO     F655467   7.604   1.097   1.366
  116DIO    C2055468   8.008   1.079   1.655
  116DIO     O355469   8.078   1.156   1.753
  116DIO    C2155470   8.121   1.282   1.703
  116DIO    C2255471   8.210   1.265   1.581
  116DIO    C2355472   8.129   1.184   1.479
  116DIO     O455473   8.085   1.061   1.536
  116DIO    C2455474   8.343   1.192   1.612
  116DIO    C2555475   8.434   1.260   1.715
  116DIO    C2655476   8.472   1.403   1.679
  116DIO     H155477   6.751   1.136   1.541
  116DIO     H255478   6.793   1.562   1.653
  116DIO     H355479   6.970   1.411   1.815
  116DIO     H455480   7.221   1.383   1.823
  116DIO     H555481   7.220   1.219   1.418
  116DIO     H655482   7.829   1.210   1.831
  116DIO     H755483   7.841   1.020   1.436
  116DIO     H855484   7.998   0.979   1.699
  116DIO     H955485   8.035   1.345   1.679
  116DIO    H1055486   8.174   1.334   1.784
  116DIO    H1155487   8.233   1.363   1.538
  116DIO    H1255488   8.190   1.160   1.391
  116DIO    H1355489   8.043   1.241   1.443
  116DIO    H1455490   8.323   1.090   1.647
  116DIO    H1555491   8.399   1.182   1.518
  116DIO    H1655492   8.386   1.259   1.814
  116DIO    H1755493   8.525   1.201   1.725
  116DIO    H1855494   8.516   1.407   1.579
  116DIO    H1955495   8.385   1.470   1.682
  116DIO    H2055496   8.546   1.441   1.750
  117DIO     F155497   3.697   6.544   5.863
  117DIO     C155498   3.775   6.439   5.897
  117DIO     C255499   3.919   6.450   5.884
  117DIO     C355500   4.008   6.337   5.919
  117DIO     C455501   3.942   6.214   5.968
  117DIO     C555502   3.798   6.205   5.980
  117DIO     F255503   3.743   6.093   6.029
  117DIO     C655504   3.714   6.317   5.945
  117DIO     F355505   3.580   6.308   5.956
  117DIO     C755506   4.154   6.346   5.905
  117DIO     C855507   4.231   6.242   5.833
  117DIO     C955508   4.376   6.251   5.821
  117DIO    C1055509   4.449   6.357   5.888
  117DIO    C1155510   4.376   6.465   5.953
  117DIO    C1255511   4.232   6.457   5.963
  117DIO     F455512   4.167   6.556   6.029
  117DIO     O155513   4.581   6.373   5.852
  117DIO    C1355514   4.675   6.415   5.945
  117DIO     O255515   4.676   6.418   6.071
  117DIO    C1455516   4.804   6.448   5.883
  117DIO    C1555517   4.871   6.356   5.788
  117DIO     F555518   4.808   6.243   5.748
  117DIO    C1655519   5.001   6.383   5.731
  117DIO    C1755520   5.077   6.500   5.773
  117DIO    C1855521   5.008   6.601   5.853
  117DIO    C1955522   4.877   6.574   5.908
  117DIO     F655523   4.814   6.677   5.969
  117DIO    C2055524   5.218   6.524   5.723
  117DIO     O355525   5.288   6.404   5.687
  117DIO    C2155526   5.331   6.330   5.801
  117DIO    C2255527   5.420   6.416   5.891
  117DIO    C2355528   5.339   6.540   5.927
  117DIO     O455529   5.295   6.608   5.810
  117DIO    C2455530   5.553   6.457   5.823
  117DIO    C2555531   5.644   6.342   5.779
  117DIO    C2655532   5.682   6.246   5.891
  117DIO     H155533   3.962   6.544   5.849
  117DIO     H255534   4.003   6.131   6.004
  117DIO     H355535   4.180   6.161   5.785
  117DIO     H455536   4.431   6.179   5.761
  117DIO     H555537   4.430   6.547   5.998
  117DIO     H655538   5.040   6.316   5.655
  117DIO     H755539   5.051   6.699   5.868
  117DIO     H855540   5.208   6.581   5.630
  117DIO     H955541   5.245   6.293   5.857
  117DIO    H1055542   5.384   6.242   5.765
  117DIO    H1155543   5.443   6.360   5.983
  117DIO    H1255544   5.401   6.610   5.985
  117DIO    H1355545   5.253   6.514   5.990
  117DIO    H1455546   5.533   6.520   5.736
  117DIO    H1555547   5.609   6.519   5.894
  117DIO    H1655548   5.596   6.285   5.697
  117DIO    H1755549   5.735   6.385   5.736
  117DIO    H1855550   5.726   6.300   5.975
  117DIO    H1955551   5.596   6.190   5.927
  117DIO    H2055552   5.756   6.174   5.855
  118DIO     F155553  -0.436   1.245   2.116
  118DIO     C155554  -0.358   1.354   2.097
  118DIO     C255555  -0.214   1.341   2.108
  118DIO     C355556  -0.125   1.458   2.091
  118DIO     C455557  -0.191   1.587   2.060
  118DIO     C555558  -0.335   1.597   2.049
  118DIO     F255559  -0.390   1.716   2.017
  118DIO     C655560  -0.419   1.481   2.067
  118DIO     F355561  -0.552   1.492   2.058
  118DIO     C755562   0.021   1.447   2.103
  118DIO     C855563   0.098   1.539   2.189
  118DIO     C955564   0.243   1.529   2.200
  118DIO    C1055565   0.316   1.433   2.118
  118DIO    C1155566   0.243   1.336   2.038
  118DIO    C1255567   0.099   1.345   2.029
  118DIO     F455568   0.034   1.257   1.950
  118DIO     O155569   0.448   1.413   2.152
  118DIO    C1355570   0.542   1.384   2.053
  118DIO     O255571   0.543   1.400   1.928
  118DIO    C1455572   0.672   1.343   2.110
  118DIO    C1555573   0.738   1.420   2.217
  118DIO     F555574   0.675   1.526   2.273
  118DIO    C1655575   0.869   1.385   2.269
  118DIO    C1755576   0.944   1.275   2.211
  118DIO    C1855577   0.876   1.187   2.117
  118DIO    C1955578   0.744   1.222   2.066
  118DIO     F655579   0.682   1.129   1.991
  118DIO    C2055580   1.085   1.244   2.257
  118DIO     O355581   1.155   1.357   2.310
  118DIO    C2155582   1.199   1.447   2.208
  118DIO    C2255583   1.287   1.376   2.107
  118DIO    C2355584   1.207   1.258   2.053
  118DIO     O455585   1.162   1.174   2.159
  118DIO    C2455586   1.420   1.325   2.167
  118DIO    C2555587   1.511   1.433   2.228
  118DIO    C2655588   1.549   1.543   2.131
  118DIO     H155589  -0.171   1.243   2.129
  118DIO     H255590  -0.130   1.674   2.036
  118DIO     H355591   0.047   1.613   2.249
  118DIO     H455592   0.298   1.591   2.269
  118DIO     H555593   0.298   1.262   1.982
  118DIO     H655594   0.907   1.440   2.354
  118DIO     H755595   0.919   1.092   2.088
  118DIO     H855596   1.075   1.174   2.341
  118DIO     H955597   1.112   1.492   2.158
  118DIO    H1055598   1.251   1.530   2.257
  118DIO    H1155599   1.310   1.444   2.024
  118DIO    H1255600   1.268   1.197   1.985
  118DIO    H1355601   1.121   1.293   1.994
  118DIO    H1455602   1.400   1.250   2.245
  118DIO    H1555603   1.477   1.274   2.089
  118DIO    H1655604   1.464   1.477   2.317
  118DIO    H1755605   1.603   1.384   2.264
  118DIO    H1855606   1.593   1.502   2.040
  118DIO    H1955607   1.463   1.604   2.104
  118DIO    H2055608   1.623   1.610   2.178
  119DIO     F155609   4.106   3.043   7.079
  119DIO     C155610   4.184   3.047   7.189
  119DIO     C255611   4.328   3.038   7.175
  119DIO     C355612   4.417   3.040   7.293
  119DIO     C455613   4.351   3.055   7.425
  119DIO     C555614   4.207   3.064   7.437
  119DIO     F255615   4.151   3.081   7.558
  119DIO     C655616   4.123   3.061   7.319
  119DIO     F355617   3.989   3.068   7.331
  119DIO     C755618   4.563   3.030   7.281
  119DIO     C855619   4.640   2.933   7.361
  119DIO     C955620   4.785   2.923   7.349
  119DIO    C1055621   4.857   3.016   7.265
  119DIO    C1155622   4.785   3.108   7.179
  119DIO    C1255623   4.641   3.116   7.189
  119DIO     F455624   4.576   3.206   7.112
  119DIO     O155625   4.990   2.986   7.241
  119DIO    C1355626   5.084   3.087   7.225
  119DIO     O255627   5.085   3.209   7.256
  119DIO    C1455628   5.213   3.036   7.177
  119DIO    C1555629   5.280   2.920   7.239
  119DIO     F555630   5.217   2.851   7.337
  119DIO    C1655631   5.410   2.873   7.198
  119DIO    C1755632   5.486   2.944   7.096
  119DIO    C1855633   5.417   3.049   7.021
  119DIO    C1955634   5.286   3.095   7.062
  119DIO     F655635   5.223   3.182   6.979
  119DIO    C2055636   5.627   2.903   7.060
  119DIO     O355637   5.697   2.836   7.165
  119DIO    C2155638   5.740   2.925   7.267
  119DIO    C2255639   5.829   3.035   7.210
  119DIO    C2355640   5.748   3.104   7.100
  119DIO     O455641   5.704   3.009   7.003
  119DIO    C2455642   5.962   2.981   7.152
  119DIO    C2555643   6.053   2.907   7.250
  119DIO    C2655644   6.091   2.989   7.372
  119DIO     H155645   4.370   3.030   7.075
  119DIO     H255646   4.412   3.067   7.514
  119DIO     H355647   4.589   2.864   7.426
  119DIO     H455648   4.840   2.846   7.402
  119DIO     H555649   4.839   3.174   7.113
  119DIO     H655650   5.448   2.781   7.242
  119DIO     H755651   5.460   3.090   6.931
  119DIO     H855652   5.617   2.828   6.980
  119DIO     H955653   5.654   2.969   7.318
  119DIO    H1055654   5.793   2.867   7.343
  119DIO    H1155655   5.852   3.108   7.288
  119DIO    H1255656   5.809   3.179   7.048
  119DIO    H1355657   5.662   3.157   7.142
  119DIO    H1455658   5.942   2.914   7.067
  119DIO    H1555659   6.018   3.066   7.111
  119DIO    H1655660   6.005   2.814   7.282
  119DIO    H1755661   6.144   2.878   7.198
  119DIO    H1855662   6.135   3.085   7.343
  119DIO    H1955663   6.004   3.008   7.437
  119DIO    H2055664   6.165   2.935   7.432
  120DIO     F155665   3.845   3.913   8.311
  120DIO     C155666   3.923   3.869   8.412
  120DIO     C255667   4.067   3.867   8.395
  120DIO     C355668   4.156   3.818   8.503
  120DIO     C455669   4.090   3.774   8.628
  120DIO     C555670   3.946   3.777   8.642
  120DIO     F255671   3.891   3.740   8.760
  120DIO     C655672   3.862   3.825   8.535
  120DIO     F355673   3.728   3.826   8.549
  120DIO     C755674   4.302   3.814   8.487
  120DIO     C855675   4.379   3.691   8.518
  120DIO     C955676   4.524   3.687   8.503
  120DIO    C1055677   4.597   3.808   8.467
  120DIO    C1155678   4.524   3.928   8.430
  120DIO    C1255679   4.380   3.931   8.442
  120DIO     F455680   4.315   4.045   8.411
  120DIO     O155681   4.729   3.791   8.432
  120DIO    C1355682   4.823   3.889   8.462
  120DIO     O255683   4.824   3.985   8.543
  120DIO    C1455684   4.952   3.864   8.396
  120DIO    C1555685   5.019   3.732   8.402
  120DIO     F555686   4.956   3.628   8.460
  120DIO    C1655687   5.149   3.707   8.345
  120DIO    C1755688   5.225   3.816   8.284
  120DIO    C1855689   5.156   3.943   8.261
  120DIO    C1955690   5.025   3.967   8.318
  120DIO     F655691   4.962   4.081   8.281
  120DIO    C2055692   5.366   3.795   8.233
  120DIO     O355693   5.436   3.689   8.299
  120DIO    C2155694   5.479   3.725   8.430
  120DIO    C2255695   5.568   3.849   8.425
  120DIO    C2355696   5.487   3.959   8.356
  120DIO     O455697   5.443   3.915   8.228
  120DIO    C2455698   5.701   3.826   8.350
  120DIO    C2555699   5.792   3.716   8.407
  120DIO    C2655700   5.830   3.737   8.552
  120DIO     H155701   4.110   3.902   8.302
  120DIO     H255702   4.151   3.746   8.714
  120DIO     H355703   4.328   3.601   8.547
  120DIO     H455704   4.579   3.595   8.517
  120DIO     H555705   4.578   4.016   8.398
  120DIO     H655706   5.188   3.606   8.345
  120DIO     H755707   5.199   4.019   8.198
  120DIO     H855708   5.356   3.762   8.129
  120DIO     H955709   5.393   3.742   8.495
  120DIO    H1055710   5.532   3.639   8.473
  120DIO    H1155711   5.591   3.881   8.528
  120DIO    H1255712   5.549   4.048   8.342
  120DIO    H1355713   5.401   3.988   8.417
  120DIO    H1455714   5.681   3.802   8.245
  120DIO    H1555715   5.757   3.920   8.350
  120DIO    H1655716   5.744   3.618   8.395
  120DIO    H1755717   5.883   3.713   8.347
  120DIO    H1855718   5.874   3.836   8.568
  120DIO    H1955719   5.744   3.727   8.619
  120DIO    H2055720   5.904   3.662   8.583
  121DIO     F155721   3.664   7.199   3.238
  121DIO     C155722   3.742   7.303   3.272
  121DIO     C255723   3.886   7.287   3.276
  121DIO     C355724   3.975   7.398   3.315
  121DIO     C455725   3.909   7.527   3.348
  121DIO     C555726   3.765   7.541   3.343
  121DIO     F255727   3.710   7.661   3.370
  121DIO     C655728   3.681   7.430   3.305
  121DIO     F355729   3.547   7.444   3.303
  121DIO     C755730   4.121   7.383   3.320
  121DIO     C855731   4.198   7.425   3.440
  121DIO     C955732   4.343   7.410   3.445
  121DIO    C1055733   4.416   7.364   3.328
  121DIO    C1155734   4.343   7.315   3.212
  121DIO    C1255735   4.199   7.327   3.208
  121DIO     F455736   4.134   7.286   3.097
  121DIO     O155737   4.548   7.330   3.348
  121DIO    C1355738   4.642   7.351   3.248
  121DIO     O255739   4.643   7.423   3.144
  121DIO    C1455740   4.771   7.288   3.278
  121DIO    C1555741   4.838   7.306   3.409
  121DIO     F555742   4.775   7.373   3.508
  121DIO    C1655743   4.968   7.251   3.439
  121DIO    C1755744   5.044   7.180   3.336
  121DIO    C1855745   4.975   7.146   3.212
  121DIO    C1955746   4.844   7.201   3.183
  121DIO     F655747   4.781   7.154   3.073
  121DIO    C2055748   5.185   7.132   3.362
  121DIO     O355749   5.255   7.207   3.462
  121DIO    C2155750   5.298   7.334   3.414
  121DIO    C2255751   5.387   7.318   3.291
  121DIO    C2355752   5.306   7.239   3.188
  121DIO     O455753   5.262   7.115   3.243
  121DIO    C2455754   5.520   7.245   3.321
  121DIO    C2555755   5.611   7.312   3.425
  121DIO    C2655756   5.649   7.455   3.391
  121DIO     H155757   3.929   7.190   3.249
  121DIO     H255758   3.970   7.615   3.368
  121DIO     H355759   4.147   7.462   3.527
  121DIO     H455760   4.398   7.433   3.535
  121DIO     H555761   4.397   7.276   3.127
  121DIO     H655762   5.007   7.260   3.540
  121DIO     H755763   5.018   7.076   3.142
  121DIO     H855764   5.175   7.031   3.404
  121DIO     H955765   5.212   7.397   3.391
  121DIO    H1055766   5.351   7.384   3.495
  121DIO    H1155767   5.410   7.417   3.249
  121DIO    H1255768   5.368   7.217   3.100
  121DIO    H1355769   5.220   7.297   3.153
  121DIO    H1455770   5.500   7.143   3.354
  121DIO    H1555771   5.576   7.236   3.227
  121DIO    H1655772   5.563   7.309   3.524
  121DIO    H1755773   5.702   7.252   3.434
  121DIO    H1855774   5.693   7.461   3.291
  121DIO    H1955775   5.563   7.522   3.395
  121DIO    H2055776   5.723   7.492   3.463
  122DIO     F155777   2.868   8.015   7.861
  122DIO     C155778   2.946   7.918   7.912
  122DIO     C255779   3.090   7.927   7.897
  122DIO     C355780   3.179   7.820   7.950
  122DIO     C455781   3.113   7.707   8.019
  122DIO     C555782   2.969   7.700   8.032
  122DIO     F255783   2.913   7.598   8.099
  122DIO     C655784   2.885   7.805   7.979
  122DIO     F355785   2.751   7.798   7.991
  122DIO     C755786   3.325   7.827   7.935
  122DIO     C855787   3.402   7.713   7.881
  122DIO     C955788   3.547   7.719   7.867
  122DIO    C1055789   3.619   7.835   7.916
  122DIO    C1155790   3.547   7.952   7.963
  122DIO    C1255791   3.403   7.947   7.974
  122DIO     F455792   3.338   8.054   8.022
  122DIO     O155793   3.752   7.845   7.878
  122DIO    C1355794   3.846   7.902   7.963
  122DIO     O255795   3.847   7.925   8.087
  122DIO    C1455796   3.975   7.924   7.897
  122DIO    C1555797   4.042   7.818   7.818
  122DIO     F555798   3.979   7.700   7.797
  122DIO    C1655799   4.172   7.835   7.757
  122DIO    C1755800   4.248   7.958   7.779
  122DIO    C1855801   4.179   8.070   7.842
  122DIO    C1955802   4.048   8.053   7.901
  122DIO     F655803   3.985   8.164   7.944
  122DIO    C2055804   4.389   7.973   7.726
  122DIO     O355805   4.459   7.849   7.711
  122DIO    C2155806   4.502   7.795   7.835
  122DIO    C2255807   4.591   7.894   7.909
  122DIO    C2355808   4.510   8.022   7.925
  122DIO     O455809   4.466   8.070   7.798
  122DIO    C2455810   4.724   7.923   7.836
  122DIO    C2555811   4.815   7.802   7.811
  122DIO    C2655812   4.853   7.727   7.937
  122DIO     H155813   3.132   8.013   7.847
  122DIO     H255814   3.174   7.631   8.068
  122DIO     H355815   3.351   7.624   7.846
  122DIO     H455816   3.602   7.639   7.820
  122DIO     H555817   3.601   8.040   7.993
  122DIO     H655818   4.210   7.756   7.693
  122DIO     H755819   4.222   8.169   7.841
  122DIO     H855820   4.379   8.014   7.625
  122DIO     H955821   4.416   7.767   7.896
  122DIO    H1055822   4.555   7.701   7.813
  122DIO    H1155823   4.614   7.854   8.009
  122DIO    H1255824   4.571   8.101   7.970
  122DIO    H1355825   4.424   8.007   7.991
  122DIO    H1455826   4.704   7.971   7.740
  122DIO    H1555827   4.780   7.996   7.895
  122DIO    H1655828   4.767   7.733   7.740
  122DIO    H1755829   4.906   7.838   7.762
  122DIO    H1855830   4.897   7.794   8.011
  122DIO    H1955831   4.766   7.677   7.982
  122DIO    H2055832   4.927   7.649   7.913
  123DIO     F155833   1.679   9.019   0.972
  123DIO     C155834   1.757   9.128   0.957
  123DIO     C255835   1.901   9.115   0.967
  123DIO     C355836   1.990   9.233   0.953
  123DIO     C455837   1.924   9.363   0.926
  123DIO     C555838   1.780   9.373   0.915
  123DIO     F255839   1.724   9.492   0.886
  123DIO     C655840   1.696   9.257   0.930
  123DIO     F355841   1.562   9.268   0.922
  123DIO     C755842   2.136   9.221   0.965
  123DIO     C855843   2.213   9.311   1.053
  123DIO     C955844   2.358   9.301   1.064
  123DIO    C1055845   2.430   9.208   0.980
  123DIO    C1155846   2.358   9.113   0.897
  123DIO    C1255847   2.214   9.122   0.889
  123DIO     F455848   2.149   9.036   0.807
  123DIO     O155849   2.563   9.186   1.013
  123DIO    C1355850   2.657   9.160   0.914
  123DIO     O255851   2.658   9.179   0.789
  123DIO    C1455852   2.786   9.118   0.969
  123DIO    C1555853   2.853   9.192   1.079
  123DIO     F555854   2.790   9.296   1.137
  123DIO    C1655855   2.983   9.155   1.130
  123DIO    C1755856   3.059   9.046   1.069
  123DIO    C1855857   2.990   8.961   0.972
  123DIO    C1955858   2.859   8.997   0.922
  123DIO     F655859   2.796   8.906   0.844
  123DIO    C2055860   3.200   9.014   1.113
  123DIO     O355861   3.270   9.126   1.169
  123DIO    C2155862   3.313   9.219   1.070
  123DIO    C2255863   3.402   9.150   0.967
  123DIO    C2355864   3.321   9.034   0.910
  123DIO     O455865   3.277   8.947   1.013
  123DIO    C2455866   3.535   9.098   1.026
  123DIO    C2555867   3.626   9.204   1.090
  123DIO    C2655868   3.664   9.317   0.996
  123DIO     H155869   1.943   9.017   0.986
  123DIO     H255870   1.985   9.450   0.904
  123DIO     H355871   2.162   9.383   1.116
  123DIO     H455872   2.413   9.361   1.135
  123DIO     H555873   2.412   9.040   0.839
  123DIO     H655874   3.021   9.208   1.216
  123DIO     H755875   3.033   8.867   0.941
  123DIO     H855876   3.190   8.943   1.196
  123DIO     H955877   3.227   9.265   1.022
  123DIO    H1055878   3.366   9.300   1.121
  123DIO    H1155879   3.425   9.220   0.886
  123DIO    H1255880   3.382   8.975   0.841
  123DIO    H1355881   3.235   9.070   0.852
  123DIO    H1455882   3.515   9.021   1.102
  123DIO    H1555883   3.591   9.049   0.946
  123DIO    H1655884   3.578   9.245   1.180
  123DIO    H1755885   3.717   9.154   1.124
  123DIO    H1855886   3.708   9.278   0.904
  123DIO    H1955887   3.577   9.379   0.970
  123DIO    H2055888   3.738   9.382   1.044
  124DIO     F155889   3.565   2.935   1.739
  124DIO     C155890   3.642   3.035   1.694
  124DIO     C255891   3.786   3.025   1.708
  124DIO     C355892   3.875   3.134   1.661
  124DIO     C455893   3.810   3.252   1.599
  124DIO     C555894   3.665   3.259   1.586
  124DIO     F255895   3.610   3.366   1.525
  124DIO     C655896   3.582   3.151   1.633
  124DIO     F355897   3.448   3.160   1.622
  124DIO     C755898   4.022   3.127   1.676
  124DIO     C855899   4.099   3.238   1.736
  124DIO     C955900   4.243   3.231   1.749
  124DIO    C1055901   4.316   3.118   1.694
  124DIO    C1155902   4.244   3.004   1.641
  124DIO    C1255903   4.099   3.010   1.630
  124DIO     F455904   4.035   2.905   1.575
  124DIO     O155905   4.448   3.106   1.732
  124DIO    C1355906   4.543   3.054   1.644
  124DIO     O255907   4.544   3.038   1.519
  124DIO    C1455908   4.672   3.028   1.708
  124DIO    C1555909   4.738   3.130   1.793
  124DIO     F555910   4.676   3.246   1.821
  124DIO    C1655911   4.869   3.109   1.853
  124DIO    C1755912   4.945   2.988   1.824
  124DIO    C1855913   4.876   2.879   1.755
  124DIO    C1955914   4.744   2.900   1.697
  124DIO     F655915   4.682   2.791   1.647
  124DIO    C2055916   5.085   2.969   1.876
  124DIO     O355917   5.155   3.092   1.898
  124DIO    C2155918   5.199   3.154   1.778
  124DIO    C2255919   5.288   3.059   1.697
  124DIO    C2355920   5.207   2.931   1.675
  124DIO     O455921   5.163   2.877   1.798
  124DIO    C2455922   5.421   3.026   1.769
  124DIO    C2555923   5.511   3.145   1.801
  124DIO    C2655924   5.550   3.227   1.679
  124DIO     H155925   3.829   2.937   1.753
  124DIO     H255926   3.870   3.330   1.554
  124DIO     H355927   4.047   3.324   1.776
  124DIO     H455928   4.299   3.308   1.801
  124DIO     H555929   4.298   2.918   1.605
  124DIO     H655930   4.907   3.184   1.921
  124DIO     H755931   4.919   2.780   1.750
  124DIO     H855932   5.076   2.923   1.975
  124DIO     H955933   5.112   3.185   1.718
  124DIO    H1055934   5.252   3.246   1.804
  124DIO    H1155935   5.310   3.104   1.600
  124DIO    H1255936   5.268   2.856   1.625
  124DIO    H1355937   5.121   2.951   1.609
  124DIO    H1455938   5.401   2.972   1.863
  124DIO    H1555939   5.477   2.956   1.706
  124DIO    H1655940   5.464   3.209   1.876
  124DIO    H1755941   5.603   3.106   1.848
  124DIO    H1855942   5.594   3.165   1.601
  124DIO    H1955943   5.463   3.280   1.638
  124DIO    H2055944   5.623   3.303   1.708
  125DIO     F155945  -0.053   5.547   6.144
  125DIO     C155946   0.024   5.580   6.249
  125DIO     C255947   0.168   5.567   6.238
  125DIO     C355948   0.257   5.600   6.351
  125DIO     C455949   0.192   5.648   6.475
  125DIO     C555950   0.047   5.660   6.484
  125DIO     F255951  -0.008   5.708   6.597
  125DIO     C655952  -0.036   5.627   6.372
  125DIO     F355953  -0.170   5.637   6.381
  125DIO     C755954   0.403   5.587   6.342
  125DIO     C855955   0.481   5.514   6.445
  125DIO     C955956   0.625   5.501   6.437
  125DIO    C1055957   0.698   5.570   6.331
  125DIO    C1155958   0.625   5.636   6.224
  125DIO    C1255959   0.481   5.646   6.232
  125DIO     F455960   0.416   5.713   6.134
  125DIO     O155961   0.830   5.534   6.315
  125DIO    C1355962   0.925   5.627   6.274
  125DIO     O255963   0.925   5.753   6.273
  125DIO    C1455964   1.054   5.566   6.240
  125DIO    C1555965   1.120   5.470   6.331
  125DIO     F555966   1.057   5.428   6.443
  125DIO    C1655967   1.251   5.413   6.303
  125DIO    C1755968   1.327   5.456   6.186
  125DIO    C1855969   1.258   5.538   6.087
  125DIO    C1955970   1.126   5.593   6.114
  125DIO     F655971   1.064   5.655   6.012
  125DIO    C2055972   1.467   5.407   6.162
  125DIO     O355973   1.537   5.370   6.281
  125DIO    C2155974   1.581   5.482   6.357
  125DIO    C2255975   1.670   5.573   6.272
  125DIO    C2355976   1.589   5.611   6.148
  125DIO     O455977   1.545   5.495   6.079
  125DIO    C2455978   1.802   5.507   6.230
  125DIO    C2555979   1.893   5.460   6.345
  125DIO    C2655980   1.931   5.571   6.442
  125DIO     H155981   0.211   5.533   6.144
  125DIO     H255982   0.252   5.683   6.558
  125DIO     H355983   0.429   5.464   6.526
  125DIO     H455984   0.680   5.441   6.507
  125DIO     H555985   0.680   5.682   6.143
  125DIO     H655986   1.289   5.337   6.369
  125DIO     H755987   1.301   5.554   5.989
  125DIO     H855988   1.458   5.314   6.104
  125DIO     H955989   1.494   5.538   6.394
  125DIO    H1055990   1.633   5.445   6.445
  125DIO    H1155991   1.692   5.665   6.329
  125DIO    H1255992   1.650   5.670   6.079
  125DIO    H1355993   1.503   5.674   6.175
  125DIO    H1455994   1.782   5.420   6.166
  125DIO    H1555995   1.859   5.578   6.169
  125DIO    H1655996   1.846   5.378   6.400
  125DIO    H1755997   1.985   5.419   6.301
  125DIO    H1855998   1.975   5.656   6.389
  125DIO    H1955999   1.845   5.607   6.499
  125DIO    H2056000   2.005   5.534   6.514
  10.00000  10.00000  10.00000
